Title="Temperature Data"
Variables="X","Y","T"
 
Zone I=    15, J=    15, F=POINT
     0.000     0.000    0.00000    
     0.000     0.071    0.00000    
     0.000     0.143    0.00000    
     0.000     0.214    0.00000    
     0.000     0.286    0.00000    
     0.000     0.357    0.00000    
     0.000     0.429    0.00000    
     0.000     0.500    0.00000    
     0.000     0.571    0.00000    
     0.000     0.643    0.00000    
     0.000     0.714    0.00000    
     0.000     0.786    0.00000    
     0.000     0.857    0.00000    
     0.000     0.929    0.00000    
     0.000     1.000    0.00000    
     0.071     0.000    0.00000    
     0.071     0.071    0.00000    
     0.071     0.143    0.00000    
     0.071     0.214    0.00000    
     0.071     0.286    0.00000    
     0.071     0.357    0.00000    
     0.071     0.429    0.00000    
     0.071     0.500    0.00000    
     0.071     0.571    0.00000    
     0.071     0.643    0.00000    
     0.071     0.714    0.00000    
     0.071     0.786    0.00000    
     0.071     0.857    0.00000    
     0.071     0.929    0.00000    
     0.071     1.000    0.00000    
     0.143     0.000    0.00000    
     0.143     0.071    0.00000    
     0.143     0.143    0.00000    
     0.143     0.214    0.00000    
     0.143     0.286    0.00000    
     0.143     0.357    0.00000    
     0.143     0.429    0.00000    
     0.143     0.500    0.00000    
     0.143     0.571    0.00000    
     0.143     0.643    0.00000    
     0.143     0.714    0.00000    
     0.143     0.786    0.00000    
     0.143     0.857    0.00000    
     0.143     0.929    0.00000    
     0.143     1.000    0.00000    
     0.214     0.000    0.00000    
     0.214     0.071    0.00000    
     0.214     0.143    0.00000    
     0.214     0.214    0.00000    
     0.214     0.286    0.00000    
     0.214     0.357    0.00000    
     0.214     0.429    0.00000    
     0.214     0.500    0.00000    
     0.214     0.571    0.00000    
     0.214     0.643    0.00000    
     0.214     0.714    0.00000    
     0.214     0.786    0.00000    
     0.214     0.857    0.00000    
     0.214     0.929    0.00000    
     0.214     1.000    0.00000    
     0.286     0.000    0.00000    
     0.286     0.071    0.00000    
     0.286     0.143    0.00000    
     0.286     0.214    0.00000    
     0.286     0.286    0.00000    
     0.286     0.357    0.00000    
     0.286     0.429    0.00000    
     0.286     0.500    0.00000    
     0.286     0.571    0.00000    
     0.286     0.643    0.00000    
     0.286     0.714    0.00000    
     0.286     0.786    0.00000    
     0.286     0.857    0.00000    
     0.286     0.929    0.00000    
     0.286     1.000    0.00000    
     0.357     0.000    0.00000    
     0.357     0.071    0.00000    
     0.357     0.143    0.00000    
     0.357     0.214    0.00000    
     0.357     0.286    0.00000    
     0.357     0.357    0.00000    
     0.357     0.429    0.00000    
     0.357     0.500    0.00000    
     0.357     0.571    0.00000    
     0.357     0.643    0.00000    
     0.357     0.714    0.00000    
     0.357     0.786    0.00000    
     0.357     0.857    0.00000    
     0.357     0.929    0.00000    
     0.357     1.000    0.00000    
     0.429     0.000    0.00000    
     0.429     0.071    0.00000    
     0.429     0.143    0.00000    
     0.429     0.214    0.00000    
     0.429     0.286    0.00000    
     0.429     0.357    0.00000    
     0.429     0.429    0.00000    
     0.429     0.500    0.00000    
     0.429     0.571    0.00000    
     0.429     0.643    0.00000    
     0.429     0.714    0.00000    
     0.429     0.786    0.00000    
     0.429     0.857    0.00000    
     0.429     0.929    0.00000    
     0.429     1.000    0.00000    
     0.500     0.000    0.00000    
     0.500     0.071    0.00000    
     0.500     0.143    0.00000    
     0.500     0.214    0.00000    
     0.500     0.286    0.00000    
     0.500     0.357    0.00000    
     0.500     0.429    0.00000    
     0.500     0.500    0.00000    
     0.500     0.571    0.00000    
     0.500     0.643    0.00000    
     0.500     0.714    0.00000    
     0.500     0.786    0.00000    
     0.500     0.857    0.00000    
     0.500     0.929    0.00000    
     0.500     1.000    0.00000    
     0.571     0.000    0.00000    
     0.571     0.071    0.00000    
     0.571     0.143    0.00000    
     0.571     0.214    0.00000    
     0.571     0.286    0.00000    
     0.571     0.357    0.00000    
     0.571     0.429    0.00000    
     0.571     0.500    0.00000    
     0.571     0.571    0.00000    
     0.571     0.643    0.00000    
     0.571     0.714    0.00000    
     0.571     0.786    0.00000    
     0.571     0.857    0.00000    
     0.571     0.929    0.00000    
     0.571     1.000    0.00000    
     0.643     0.000    0.00000    
     0.643     0.071    0.00000    
     0.643     0.143    0.00000    
     0.643     0.214    0.00000    
     0.643     0.286    0.00000    
     0.643     0.357    0.00000    
     0.643     0.429    0.00000    
     0.643     0.500    0.00000    
     0.643     0.571    0.00000    
     0.643     0.643    0.00000    
     0.643     0.714    0.00000    
     0.643     0.786    0.00000    
     0.643     0.857    0.00000    
     0.643     0.929    0.00000    
     0.643     1.000    0.00000    
     0.714     0.000    0.00000    
     0.714     0.071    0.00000    
     0.714     0.143    0.00000    
     0.714     0.214    0.00000    
     0.714     0.286    0.00000    
     0.714     0.357    0.00000    
     0.714     0.429    0.00000    
     0.714     0.500    0.00000    
     0.714     0.571    0.00000    
     0.714     0.643    0.00000    
     0.714     0.714    0.00000    
     0.714     0.786    0.00000    
     0.714     0.857    0.00000    
     0.714     0.929    0.00000    
     0.714     1.000    0.00000    
     0.786     0.000    0.00000    
     0.786     0.071    0.00000    
     0.786     0.143    0.00000    
     0.786     0.214    0.00000    
     0.786     0.286    0.00000    
     0.786     0.357    0.00000    
     0.786     0.429    0.00000    
     0.786     0.500    0.00000    
     0.786     0.571    0.00000    
     0.786     0.643    0.00000    
     0.786     0.714    0.00000    
     0.786     0.786    0.00000    
     0.786     0.857    0.00000    
     0.786     0.929    0.00000    
     0.786     1.000    0.00000    
     0.857     0.000    0.00000    
     0.857     0.071    0.00000    
     0.857     0.143    0.00000    
     0.857     0.214    0.00000    
     0.857     0.286    0.00000    
     0.857     0.357    0.00000    
     0.857     0.429    0.00000    
     0.857     0.500    0.00000    
     0.857     0.571    0.00000    
     0.857     0.643    0.00000    
     0.857     0.714    0.00000    
     0.857     0.786    0.00000    
     0.857     0.857    0.00000    
     0.857     0.929    0.00000    
     0.857     1.000    0.00000    
     0.929     0.000    0.00000    
     0.929     0.071    0.00000    
     0.929     0.143    0.00000    
     0.929     0.214    0.00000    
     0.929     0.286    0.00000    
     0.929     0.357    0.00000    
     0.929     0.429    0.00000    
     0.929     0.500    0.00000    
     0.929     0.571    0.00000    
     0.929     0.643    0.00000    
     0.929     0.714    0.00000    
     0.929     0.786    0.00000    
     0.929     0.857    0.00000    
     0.929     0.929    0.00000    
     0.929     1.000    0.00000    
     1.000     0.000    0.00000    
     1.000     0.071    0.00000    
     1.000     0.143    0.00000    
     1.000     0.214    0.00000    
     1.000     0.286    0.00000    
     1.000     0.357    0.00000    
     1.000     0.429    0.00000    
     1.000     0.500    0.00000    
     1.000     0.571    0.00000    
     1.000     0.643    0.00000    
     1.000     0.714    0.00000    
     1.000     0.786    0.00000    
     1.000     0.857    0.00000    
     1.000     0.929    0.00000    
     1.000     1.000    0.00000    
