Title="Temperature Data"
Variables="X","Y","T"
 
Zone I=    64, J=    64, F=POINT
     0.000     0.000    0.00000    
     0.000     0.016    0.00000    
     0.000     0.032    0.00000    
     0.000     0.048    0.00000    
     0.000     0.063    0.00000    
     0.000     0.079    0.00000    
     0.000     0.095    0.00000    
     0.000     0.111    0.00000    
     0.000     0.127    0.00000    
     0.000     0.143    0.00000    
     0.000     0.159    0.00000    
     0.000     0.175    0.00000    
     0.000     0.190    0.00000    
     0.000     0.206    0.00000    
     0.000     0.222    0.00000    
     0.000     0.238    0.00000    
     0.000     0.254    0.00000    
     0.000     0.270    0.00000    
     0.000     0.286    0.00000    
     0.000     0.302    0.00000    
     0.000     0.317    0.00000    
     0.000     0.333    0.00000    
     0.000     0.349    0.00000    
     0.000     0.365    0.00000    
     0.000     0.381    0.00000    
     0.000     0.397    0.00000    
     0.000     0.413    0.00000    
     0.000     0.429    0.00000    
     0.000     0.444    0.00000    
     0.000     0.460    0.00000    
     0.000     0.476    0.00000    
     0.000     0.492    0.00000    
     0.000     0.508    0.00000    
     0.000     0.524    0.00000    
     0.000     0.540    0.00000    
     0.000     0.556    0.00000    
     0.000     0.571    0.00000    
     0.000     0.587    0.00000    
     0.000     0.603    0.00000    
     0.000     0.619    0.00000    
     0.000     0.635    0.00000    
     0.000     0.651    0.00000    
     0.000     0.667    0.00000    
     0.000     0.683    0.00000    
     0.000     0.698    0.00000    
     0.000     0.714    0.00000    
     0.000     0.730    0.00000    
     0.000     0.746    0.00000    
     0.000     0.762    0.00000    
     0.000     0.778    0.00000    
     0.000     0.794    0.00000    
     0.000     0.810    0.00000    
     0.000     0.825    0.00000    
     0.000     0.841    0.00000    
     0.000     0.857    0.00000    
     0.000     0.873    0.00000    
     0.000     0.889    0.00000    
     0.000     0.905    0.00000    
     0.000     0.921    0.00000    
     0.000     0.937    0.00000    
     0.000     0.952    0.00000    
     0.000     0.968    0.00000    
     0.000     0.984    0.00000    
     0.000     1.000    0.00000    
     0.016     0.000   0.498459E-01
     0.016     0.016   0.396674E-01
     0.016     0.032   0.302095E-01
     0.016     0.048   0.219545E-01
     0.016     0.063   0.151906E-01
     0.016     0.079   0.998894E-02
     0.016     0.095   0.623403E-02
     0.016     0.111   0.368890E-02
     0.016     0.127   0.206830E-02
     0.016     0.143   0.109836E-02
     0.016     0.159   0.552345E-03
     0.016     0.175   0.263026E-03
     0.016     0.190   0.118621E-03
     0.016     0.206   0.506758E-04
     0.016     0.222   0.205137E-04
     0.016     0.238   0.787136E-05
     0.016     0.254   0.286415E-05
     0.016     0.270   0.988711E-06
     0.016     0.286   0.323940E-06
     0.016     0.302   0.100781E-06
     0.016     0.317   0.297853E-07
     0.016     0.333   0.836624E-08
     0.016     0.349   0.223432E-08
     0.016     0.365   0.567571E-09
     0.016     0.381   0.137190E-09
     0.016     0.397   0.315649E-10
     0.016     0.413   0.691524E-11
     0.016     0.429   0.144298E-11
     0.016     0.444   0.286863E-12
     0.016     0.460   0.543439E-13
     0.016     0.476   0.981238E-14
     0.016     0.492   0.168894E-14
     0.016     0.508   0.277153E-15
     0.016     0.524   0.433641E-16
     0.016     0.540   0.646941E-17
     0.016     0.556   0.920289E-18
     0.016     0.571   0.124823E-18
     0.016     0.587   0.161413E-19
     0.016     0.603   0.198977E-20
     0.016     0.619   0.233786E-21
     0.016     0.635   0.261751E-22
     0.016     0.651   0.279189E-23
     0.016     0.667   0.283602E-24
     0.016     0.683   0.274260E-25
     0.016     0.698   0.252388E-26
     0.016     0.714   0.220911E-27
     0.016     0.730   0.183808E-28
     0.016     0.746   0.145292E-29
     0.016     0.762   0.109030E-30
     0.016     0.778   0.776127E-32
     0.016     0.794   0.523634E-33
     0.016     0.810   0.334513E-34
     0.016     0.825   0.202125E-35
     0.016     0.841   0.115381E-36
     0.016     0.857   0.621420E-38
     0.016     0.873   0.315308E-39
     0.016     0.889   0.150480E-40
     0.016     0.905   0.674271E-42
     0.016     0.921   0.283088E-43
     0.016     0.937   0.111112E-44
     0.016     0.952   0.406680E-46
     0.016     0.968   0.138405E-47
     0.016     0.984   0.436232E-49
     0.016     1.000    0.00000    
     0.032     0.000   0.995678E-01
     0.032     0.016   0.792362E-01
     0.032     0.032   0.603440E-01
     0.032     0.048   0.438544E-01
     0.032     0.063   0.303434E-01
     0.032     0.079   0.199531E-01
     0.032     0.095   0.124526E-01
     0.032     0.111   0.736863E-02
     0.032     0.127   0.413147E-02
     0.032     0.143   0.219400E-02
     0.032     0.159   0.110332E-02
     0.032     0.175   0.525399E-03
     0.032     0.190   0.236948E-03
     0.032     0.206   0.101226E-03
     0.032     0.222   0.409763E-04
     0.032     0.238   0.157231E-04
     0.032     0.254   0.572118E-05
     0.032     0.270   0.197496E-05
     0.032     0.286   0.647074E-06
     0.032     0.302   0.201311E-06
     0.032     0.317   0.594966E-07
     0.032     0.333   0.167117E-07
     0.032     0.349   0.446308E-08
     0.032     0.365   0.113373E-08
     0.032     0.381   0.274039E-09
     0.032     0.397   0.630513E-10
     0.032     0.413   0.138133E-10
     0.032     0.429   0.288237E-11
     0.032     0.444   0.573012E-12
     0.032     0.460   0.108553E-12
     0.032     0.476   0.196004E-13
     0.032     0.492   0.337367E-14
     0.032     0.508   0.553617E-15
     0.032     0.524   0.866204E-16
     0.032     0.540   0.129227E-16
     0.032     0.556   0.183829E-17
     0.032     0.571   0.249335E-18
     0.032     0.587   0.322424E-19
     0.032     0.603   0.397460E-20
     0.032     0.619   0.466991E-21
     0.032     0.635   0.522852E-22
     0.032     0.651   0.557684E-23
     0.032     0.667   0.566500E-24
     0.032     0.683   0.547838E-25
     0.032     0.698   0.504149E-26
     0.032     0.714   0.441272E-27
     0.032     0.730   0.367160E-28
     0.032     0.746   0.290224E-29
     0.032     0.762   0.217788E-30
     0.032     0.778   0.155032E-31
     0.032     0.794   0.104597E-32
     0.032     0.810   0.668193E-34
     0.032     0.825   0.403747E-35
     0.032     0.841   0.230475E-36
     0.032     0.857   0.124129E-37
     0.032     0.873   0.629832E-39
     0.032     0.889   0.300587E-40
     0.032     0.905   0.134687E-41
     0.032     0.921   0.565472E-43
     0.032     0.937   0.221948E-44
     0.032     0.952   0.812348E-46
     0.032     0.968   0.276467E-47
     0.032     0.984   0.871380E-49
     0.032     1.000    0.00000    
     0.048     0.000   0.149042    
     0.048     0.016   0.118608    
     0.048     0.032   0.903284E-01
     0.048     0.048   0.656452E-01
     0.048     0.063   0.454208E-01
     0.048     0.079   0.298676E-01
     0.048     0.095   0.186401E-01
     0.048     0.111   0.110300E-01
     0.048     0.127   0.618436E-02
     0.048     0.143   0.328418E-02
     0.048     0.159   0.165155E-02
     0.048     0.175   0.786465E-03
     0.048     0.190   0.354686E-03
     0.048     0.206   0.151524E-03
     0.048     0.222   0.613371E-04
     0.048     0.238   0.235358E-04
     0.048     0.254   0.856399E-05
     0.048     0.270   0.295631E-05
     0.048     0.286   0.968600E-06
     0.048     0.302   0.301340E-06
     0.048     0.317   0.890599E-07
     0.048     0.333   0.250156E-07
     0.048     0.349   0.668074E-08
     0.048     0.365   0.169707E-08
     0.048     0.381   0.410206E-09
     0.048     0.397   0.943810E-10
     0.048     0.413   0.206770E-10
     0.048     0.429   0.431459E-11
     0.048     0.444   0.857737E-12
     0.048     0.460   0.162492E-12
     0.048     0.476   0.293396E-13
     0.048     0.492   0.505002E-14
     0.048     0.508   0.828705E-15
     0.048     0.524   0.129661E-15
     0.048     0.540   0.193439E-16
     0.048     0.556   0.275172E-17
     0.048     0.571   0.373227E-18
     0.048     0.587   0.482634E-19
     0.048     0.603   0.594955E-20
     0.048     0.619   0.699035E-21
     0.048     0.635   0.782652E-22
     0.048     0.651   0.834792E-23
     0.048     0.667   0.847988E-24
     0.048     0.683   0.820054E-25
     0.048     0.698   0.754656E-26
     0.048     0.714   0.660537E-27
     0.048     0.730   0.549599E-28
     0.048     0.746   0.434433E-29
     0.048     0.762   0.326006E-30
     0.048     0.778   0.232067E-31
     0.048     0.794   0.156570E-32
     0.048     0.810   0.100021E-33
     0.048     0.825   0.604366E-35
     0.048     0.841   0.344997E-36
     0.048     0.857   0.185808E-37
     0.048     0.873   0.942791E-39
     0.048     0.889   0.449946E-40
     0.048     0.905   0.201611E-41
     0.048     0.921   0.846451E-43
     0.048     0.937   0.332232E-44
     0.048     0.952   0.121600E-45
     0.048     0.968   0.413841E-47
     0.048     0.984   0.130436E-48
     0.048     1.000    0.00000    
     0.063     0.000   0.198146    
     0.063     0.016   0.157685    
     0.063     0.032   0.120088    
     0.063     0.048   0.872729E-01
     0.063     0.063   0.603853E-01
     0.063     0.079   0.397078E-01
     0.063     0.095   0.247814E-01
     0.063     0.111   0.146640E-01
     0.063     0.127   0.822187E-02
     0.063     0.143   0.436619E-02
     0.063     0.159   0.219567E-02
     0.063     0.175   0.104558E-02
     0.063     0.190   0.471541E-03
     0.063     0.206   0.201445E-03
     0.063     0.222   0.815454E-04
     0.063     0.238   0.312900E-04
     0.063     0.254   0.113855E-04
     0.063     0.270   0.393030E-05
     0.063     0.286   0.128772E-05
     0.063     0.302   0.400621E-06
     0.063     0.317   0.118402E-06
     0.063     0.333   0.332573E-07
     0.063     0.349   0.888180E-08
     0.063     0.365   0.225619E-08
     0.063     0.381   0.545354E-09
     0.063     0.397   0.125476E-09
     0.063     0.413   0.274893E-10
     0.063     0.429   0.573608E-11
     0.063     0.444   0.114033E-11
     0.063     0.460   0.216027E-12
     0.063     0.476   0.390059E-13
     0.063     0.492   0.671382E-14
     0.063     0.508   0.110173E-14
     0.063     0.524   0.172380E-15
     0.063     0.540   0.257170E-16
     0.063     0.556   0.365831E-17
     0.063     0.571   0.496192E-18
     0.063     0.587   0.641644E-19
     0.063     0.603   0.790970E-20
     0.063     0.619   0.929341E-21
     0.063     0.635   0.104051E-21
     0.063     0.651   0.110982E-22
     0.063     0.667   0.112737E-23
     0.063     0.683   0.109023E-24
     0.063     0.698   0.100329E-25
     0.063     0.714   0.878159E-27
     0.063     0.730   0.730671E-28
     0.063     0.746   0.577563E-29
     0.063     0.762   0.433412E-30
     0.063     0.778   0.308524E-31
     0.063     0.794   0.208154E-32
     0.063     0.810   0.132975E-33
     0.063     0.825   0.803482E-35
     0.063     0.841   0.458660E-36
     0.063     0.857   0.247025E-37
     0.063     0.873   0.125341E-38
     0.063     0.889   0.598186E-40
     0.063     0.905   0.268034E-41
     0.063     0.921   0.112532E-42
     0.063     0.937   0.441690E-44
     0.063     0.952   0.161662E-45
     0.063     0.968   0.550186E-47
     0.063     0.984   0.173410E-48
     0.063     1.000    0.00000    
     0.079     0.000   0.246757    
     0.079     0.016   0.196370    
     0.079     0.032   0.149549    
     0.079     0.048   0.108684    
     0.079     0.063   0.751996E-01
     0.079     0.079   0.494493E-01
     0.079     0.095   0.308610E-01
     0.079     0.111   0.182615E-01
     0.079     0.127   0.102389E-01
     0.079     0.143   0.543735E-02
     0.079     0.159   0.273433E-02
     0.079     0.175   0.130209E-02
     0.079     0.190   0.587225E-03
     0.079     0.206   0.250866E-03
     0.079     0.222   0.101551E-03
     0.079     0.238   0.389664E-04
     0.079     0.254   0.141787E-04
     0.079     0.270   0.489452E-05
     0.079     0.286   0.160363E-05
     0.079     0.302   0.498905E-06
     0.079     0.317   0.147449E-06
     0.079     0.333   0.414163E-07
     0.079     0.349   0.110608E-07
     0.079     0.365   0.280971E-08
     0.079     0.381   0.679146E-09
     0.079     0.397   0.156259E-09
     0.079     0.413   0.342332E-10
     0.079     0.429   0.714332E-11
     0.079     0.444   0.142009E-11
     0.079     0.460   0.269025E-12
     0.079     0.476   0.485753E-13
     0.079     0.492   0.836092E-14
     0.079     0.508   0.137202E-14
     0.079     0.524   0.214670E-15
     0.079     0.540   0.320262E-16
     0.079     0.556   0.455580E-17
     0.079     0.571   0.617923E-18
     0.079     0.587   0.799058E-19
     0.079     0.603   0.985019E-20
     0.079     0.619   0.115734E-20
     0.079     0.635   0.129577E-21
     0.079     0.651   0.138210E-22
     0.079     0.667   0.140395E-23
     0.079     0.683   0.135770E-24
     0.079     0.698   0.124942E-25
     0.079     0.714   0.109360E-26
     0.079     0.730   0.909927E-28
     0.079     0.746   0.719256E-29
     0.079     0.762   0.539741E-30
     0.079     0.778   0.384214E-31
     0.079     0.794   0.259220E-32
     0.079     0.810   0.165597E-33
     0.079     0.825   0.100060E-34
     0.079     0.841   0.571184E-36
     0.079     0.857   0.307628E-37
     0.079     0.873   0.156090E-38
     0.079     0.889   0.744939E-40
     0.079     0.905   0.333791E-41
     0.079     0.921   0.140140E-42
     0.079     0.937   0.550050E-44
     0.079     0.952   0.201323E-45
     0.079     0.968   0.685163E-47
     0.079     0.984   0.215953E-48
     0.079     1.000    0.00000    
     0.095     0.000   0.294755    
     0.095     0.016   0.234566    
     0.095     0.032   0.178639    
     0.095     0.048   0.129824    
     0.095     0.063   0.898270E-01
     0.095     0.079   0.590679E-01
     0.095     0.095   0.368639E-01
     0.095     0.111   0.218137E-01
     0.095     0.127   0.122306E-01
     0.095     0.143   0.649499E-02
     0.095     0.159   0.326620E-02
     0.095     0.175   0.155536E-02
     0.095     0.190   0.701448E-03
     0.095     0.206   0.299663E-03
     0.095     0.222   0.121304E-03
     0.095     0.238   0.465459E-04
     0.095     0.254   0.169367E-04
     0.095     0.270   0.584657E-05
     0.095     0.286   0.191556E-05
     0.095     0.302   0.595949E-06
     0.095     0.317   0.176130E-06
     0.095     0.333   0.494723E-07
     0.095     0.349   0.132122E-07
     0.095     0.365   0.335623E-08
     0.095     0.381   0.811249E-09
     0.095     0.397   0.186654E-09
     0.095     0.413   0.408921E-10
     0.095     0.429   0.853280E-11
     0.095     0.444   0.169631E-11
     0.095     0.460   0.321354E-12
     0.095     0.476   0.580239E-13
     0.095     0.492   0.998723E-14
     0.095     0.508   0.163890E-14
     0.095     0.524   0.256426E-15
     0.095     0.540   0.382557E-16
     0.095     0.556   0.544197E-17
     0.095     0.571   0.738117E-18
     0.095     0.587   0.954486E-19
     0.095     0.603   0.117662E-19
     0.095     0.619   0.138245E-20
     0.095     0.635   0.154782E-21
     0.095     0.651   0.165094E-22
     0.095     0.667   0.167703E-23
     0.095     0.683   0.162179E-24
     0.095     0.698   0.149245E-25
     0.095     0.714   0.130632E-26
     0.095     0.730   0.108692E-27
     0.095     0.746   0.859162E-29
     0.095     0.762   0.644729E-30
     0.095     0.778   0.458949E-31
     0.095     0.794   0.309642E-32
     0.095     0.810   0.197808E-33
     0.095     0.825   0.119523E-34
     0.095     0.841   0.682287E-36
     0.095     0.857   0.367466E-37
     0.095     0.873   0.186452E-38
     0.095     0.889   0.889841E-40
     0.095     0.905   0.398719E-41
     0.095     0.921   0.167399E-42
     0.095     0.937   0.657042E-44
     0.095     0.952   0.240483E-45
     0.095     0.968   0.818437E-47
     0.095     0.984   0.257959E-48
     0.095     1.000    0.00000    
     0.111     0.000   0.342020    
     0.111     0.016   0.272180    
     0.111     0.032   0.207284    
     0.111     0.048   0.150642    
     0.111     0.063   0.104231    
     0.111     0.079   0.685397E-01
     0.111     0.095   0.427751E-01
     0.111     0.111   0.253116E-01
     0.111     0.127   0.141918E-01
     0.111     0.143   0.753649E-02
     0.111     0.159   0.378995E-02
     0.111     0.175   0.180477E-02
     0.111     0.190   0.813927E-03
     0.111     0.206   0.347715E-03
     0.111     0.222   0.140756E-03
     0.111     0.238   0.540097E-04
     0.111     0.254   0.196525E-04
     0.111     0.270   0.678409E-05
     0.111     0.286   0.222273E-05
     0.111     0.302   0.691512E-06
     0.111     0.317   0.204374E-06
     0.111     0.333   0.574054E-07
     0.111     0.349   0.153309E-07
     0.111     0.365   0.389442E-08
     0.111     0.381   0.941336E-09
     0.111     0.397   0.216584E-09
     0.111     0.413   0.474493E-10
     0.111     0.429   0.990106E-11
     0.111     0.444   0.196832E-11
     0.111     0.460   0.372884E-12
     0.111     0.476   0.673282E-13
     0.111     0.492   0.115887E-13
     0.111     0.508   0.190170E-14
     0.111     0.524   0.297545E-15
     0.111     0.540   0.443902E-16
     0.111     0.556   0.631461E-17
     0.111     0.571   0.856477E-18
     0.111     0.587   0.110754E-18
     0.111     0.603   0.136529E-19
     0.111     0.619   0.160414E-20
     0.111     0.635   0.179602E-21
     0.111     0.651   0.191567E-22
     0.111     0.667   0.194595E-23
     0.111     0.683   0.188185E-24
     0.111     0.698   0.173177E-25
     0.111     0.714   0.151579E-26
     0.111     0.730   0.126121E-27
     0.111     0.746   0.996931E-29
     0.111     0.762   0.748113E-30
     0.111     0.778   0.532543E-31
     0.111     0.794   0.359295E-32
     0.111     0.810   0.229528E-33
     0.111     0.825   0.138689E-34
     0.111     0.841   0.791694E-36
     0.111     0.857   0.426390E-37
     0.111     0.873   0.216350E-38
     0.111     0.889   0.103253E-39
     0.111     0.905   0.462654E-41
     0.111     0.921   0.194242E-42
     0.111     0.937   0.762401E-44
     0.111     0.952   0.279045E-45
     0.111     0.968   0.949676E-47
     0.111     0.984   0.299323E-48
     0.111     1.000    0.00000    
     0.127     0.000   0.388435    
     0.127     0.016   0.309117    
     0.127     0.032   0.235414    
     0.127     0.048   0.171085    
     0.127     0.063   0.118376    
     0.127     0.079   0.778410E-01
     0.127     0.095   0.485800E-01
     0.127     0.111   0.287465E-01
     0.127     0.127   0.161177E-01
     0.127     0.143   0.855924E-02
     0.127     0.159   0.430427E-02
     0.127     0.175   0.204969E-02
     0.127     0.190   0.924383E-03
     0.127     0.206   0.394902E-03
     0.127     0.222   0.159857E-03
     0.127     0.238   0.613393E-04
     0.127     0.254   0.223195E-04
     0.127     0.270   0.770474E-05
     0.127     0.286   0.252437E-05
     0.127     0.302   0.785355E-06
     0.127     0.317   0.232109E-06
     0.127     0.333   0.651957E-07
     0.127     0.349   0.174114E-07
     0.127     0.365   0.442292E-08
     0.127     0.381   0.106908E-08
     0.127     0.397   0.245976E-09
     0.127     0.413   0.538885E-10
     0.127     0.429   0.112447E-10
     0.127     0.444   0.223544E-11
     0.127     0.460   0.423487E-12
     0.127     0.476   0.764651E-13
     0.127     0.492   0.131614E-13
     0.127     0.508   0.215977E-14
     0.127     0.524   0.337924E-15
     0.127     0.540   0.504142E-16
     0.127     0.556   0.717155E-17
     0.127     0.571   0.972707E-18
     0.127     0.587   0.125784E-18
     0.127     0.603   0.155057E-19
     0.127     0.619   0.182183E-20
     0.127     0.635   0.203975E-21
     0.127     0.651   0.217564E-22
     0.127     0.667   0.221003E-23
     0.127     0.683   0.213723E-24
     0.127     0.698   0.196679E-25
     0.127     0.714   0.172150E-26
     0.127     0.730   0.143237E-27
     0.127     0.746   0.113222E-28
     0.127     0.762   0.849638E-30
     0.127     0.778   0.604813E-31
     0.127     0.794   0.408053E-32
     0.127     0.810   0.260676E-33
     0.127     0.825   0.157510E-34
     0.127     0.841   0.899132E-36
     0.127     0.857   0.484255E-37
     0.127     0.873   0.245711E-38
     0.127     0.889   0.117265E-39
     0.127     0.905   0.525440E-41
     0.127     0.921   0.220602E-42
     0.127     0.937   0.865865E-44
     0.127     0.952   0.316914E-45
     0.127     0.968   0.107855E-46
     0.127     0.984   0.339943E-48
     0.127     1.000    0.00000    
     0.143     0.000   0.433884    
     0.143     0.016   0.345285    
     0.143     0.032   0.262959    
     0.143     0.048   0.191103    
     0.143     0.063   0.132227    
     0.143     0.079   0.869488E-01
     0.143     0.095   0.542641E-01
     0.143     0.111   0.321100E-01
     0.143     0.127   0.180036E-01
     0.143     0.143   0.956072E-02
     0.143     0.159   0.480789E-02
     0.143     0.175   0.228951E-02
     0.143     0.190   0.103254E-02
     0.143     0.206   0.441108E-03
     0.143     0.222   0.178561E-03
     0.143     0.238   0.685163E-04
     0.143     0.254   0.249310E-04
     0.143     0.270   0.860624E-05
     0.143     0.286   0.281974E-05
     0.143     0.302   0.877246E-06
     0.143     0.317   0.259266E-06
     0.143     0.333   0.728240E-07
     0.143     0.349   0.194486E-07
     0.143     0.365   0.494042E-08
     0.143     0.381   0.119417E-08
     0.143     0.397   0.274757E-09
     0.143     0.413   0.601937E-10
     0.143     0.429   0.125604E-10
     0.143     0.444   0.249700E-11
     0.143     0.460   0.473037E-12
     0.143     0.476   0.854119E-13
     0.143     0.492   0.147013E-13
     0.143     0.508   0.241248E-14
     0.143     0.524   0.377463E-15
     0.143     0.540   0.563130E-16
     0.143     0.556   0.801066E-17
     0.143     0.571   0.108652E-17
     0.143     0.587   0.140502E-18
     0.143     0.603   0.173200E-19
     0.143     0.619   0.203499E-20
     0.143     0.635   0.227841E-21
     0.143     0.651   0.243020E-22
     0.143     0.667   0.246862E-23
     0.143     0.683   0.238730E-24
     0.143     0.698   0.219691E-25
     0.143     0.714   0.192292E-26
     0.143     0.730   0.159996E-27
     0.143     0.746   0.126470E-28
     0.143     0.762   0.949050E-30
     0.143     0.778   0.675580E-31
     0.143     0.794   0.455798E-32
     0.143     0.810   0.291177E-33
     0.143     0.825   0.175940E-34
     0.143     0.841   0.100434E-35
     0.143     0.857   0.540915E-37
     0.143     0.873   0.274460E-38
     0.143     0.889   0.130986E-39
     0.143     0.905   0.586919E-41
     0.143     0.921   0.246414E-42
     0.143     0.937   0.967175E-44
     0.143     0.952   0.353994E-45
     0.143     0.968   0.120475E-46
     0.143     0.984   0.379719E-48
     0.143     1.000    0.00000    
     0.159     0.000   0.478254    
     0.159     0.016   0.380595    
     0.159     0.032   0.289850    
     0.159     0.048   0.210646    
     0.159     0.063   0.145748    
     0.159     0.079   0.958405E-01
     0.159     0.095   0.598134E-01
     0.159     0.111   0.353937E-01
     0.159     0.127   0.198447E-01
     0.159     0.143   0.105384E-01
     0.159     0.159   0.529956E-02
     0.159     0.175   0.252365E-02
     0.159     0.190   0.113813E-02
     0.159     0.206   0.486217E-03
     0.159     0.222   0.196822E-03
     0.159     0.238   0.755230E-04
     0.159     0.254   0.274805E-04
     0.159     0.270   0.948634E-05
     0.159     0.286   0.310809E-05
     0.159     0.302   0.966955E-06
     0.159     0.317   0.285780E-06
     0.159     0.333   0.802711E-07
     0.159     0.349   0.214375E-07
     0.159     0.365   0.544565E-08
     0.159     0.381   0.131629E-08
     0.159     0.397   0.302854E-09
     0.159     0.413   0.663493E-10
     0.159     0.429   0.138449E-10
     0.159     0.444   0.275235E-11
     0.159     0.460   0.521411E-12
     0.159     0.476   0.941464E-13
     0.159     0.492   0.162048E-13
     0.159     0.508   0.265919E-14
     0.159     0.524   0.416063E-15
     0.159     0.540   0.620717E-16
     0.159     0.556   0.882985E-17
     0.159     0.571   0.119763E-17
     0.159     0.587   0.154870E-18
     0.159     0.603   0.190912E-19
     0.159     0.619   0.224310E-20
     0.159     0.635   0.251141E-21
     0.159     0.651   0.267872E-22
     0.159     0.667   0.272107E-23
     0.159     0.683   0.263143E-24
     0.159     0.698   0.242158E-25
     0.159     0.714   0.211956E-26
     0.159     0.730   0.176358E-27
     0.159     0.746   0.139403E-28
     0.159     0.762   0.104610E-29
     0.159     0.778   0.744667E-31
     0.159     0.794   0.502409E-32
     0.159     0.810   0.320953E-33
     0.159     0.825   0.193932E-34
     0.159     0.841   0.110704E-35
     0.159     0.857   0.596231E-37
     0.159     0.873   0.302527E-38
     0.159     0.889   0.144381E-39
     0.159     0.905   0.646939E-41
     0.159     0.921   0.271613E-42
     0.159     0.937   0.106608E-43
     0.159     0.952   0.390195E-45
     0.159     0.968   0.132795E-46
     0.159     0.984   0.418550E-48
     0.159     1.000    0.00000    
     0.175     0.000   0.521435    
     0.175     0.016   0.414959    
     0.175     0.032   0.316020    
     0.175     0.048   0.229665    
     0.175     0.063   0.158908    
     0.175     0.079   0.104494    
     0.175     0.095   0.652139E-01
     0.175     0.111   0.385894E-01
     0.175     0.127   0.216364E-01
     0.175     0.143   0.114899E-01
     0.175     0.159   0.577806E-02
     0.175     0.175   0.275150E-02
     0.175     0.190   0.124089E-02
     0.175     0.206   0.530117E-03
     0.175     0.222   0.214592E-03
     0.175     0.238   0.823419E-04
     0.175     0.254   0.299617E-04
     0.175     0.270   0.103429E-04
     0.175     0.286   0.338872E-05
     0.175     0.302   0.105426E-05
     0.175     0.317   0.311583E-06
     0.175     0.333   0.875188E-07
     0.175     0.349   0.233731E-07
     0.175     0.365   0.593733E-08
     0.175     0.381   0.143514E-08
     0.175     0.397   0.330199E-09
     0.175     0.413   0.723400E-10
     0.175     0.429   0.150949E-10
     0.175     0.444   0.300086E-11
     0.175     0.460   0.568489E-12
     0.175     0.476   0.102647E-12
     0.175     0.492   0.176679E-13
     0.175     0.508   0.289928E-14
     0.175     0.524   0.453630E-15
     0.175     0.540   0.676761E-16
     0.175     0.556   0.962709E-17
     0.175     0.571   0.130576E-17
     0.175     0.587   0.168853E-18
     0.175     0.603   0.208149E-19
     0.175     0.619   0.244562E-20
     0.175     0.635   0.273817E-21
     0.175     0.651   0.292058E-22
     0.175     0.667   0.296675E-23
     0.175     0.683   0.286902E-24
     0.175     0.698   0.264022E-25
     0.175     0.714   0.231094E-26
     0.175     0.730   0.192281E-27
     0.175     0.746   0.151990E-28
     0.175     0.762   0.114055E-29
     0.175     0.778   0.811902E-31
     0.175     0.794   0.547771E-32
     0.175     0.810   0.349932E-33
     0.175     0.825   0.211442E-34
     0.175     0.841   0.120700E-35
     0.175     0.857   0.650064E-37
     0.175     0.873   0.329842E-38
     0.175     0.889   0.157417E-39
     0.175     0.905   0.705351E-41
     0.175     0.921   0.296137E-42
     0.175     0.937   0.116234E-43
     0.175     0.952   0.425425E-45
     0.175     0.968   0.144785E-46
     0.175     0.984   0.456340E-48
     0.175     1.000    0.00000    
     0.190     0.000   0.563320    
     0.190     0.016   0.448291    
     0.190     0.032   0.341405    
     0.190     0.048   0.248113    
     0.190     0.063   0.171672    
     0.190     0.079   0.112887    
     0.190     0.095   0.704522E-01
     0.190     0.111   0.416891E-01
     0.190     0.127   0.233744E-01
     0.190     0.143   0.124129E-01
     0.190     0.159   0.624218E-02
     0.190     0.175   0.297252E-02
     0.190     0.190   0.134057E-02
     0.190     0.206   0.572699E-03
     0.190     0.222   0.231830E-03
     0.190     0.238   0.889561E-04
     0.190     0.254   0.323684E-04
     0.190     0.270   0.111737E-04
     0.190     0.286   0.366092E-05
     0.190     0.302   0.113895E-05
     0.190     0.317   0.336611E-06
     0.190     0.333   0.945488E-07
     0.190     0.349   0.252505E-07
     0.190     0.365   0.641425E-08
     0.190     0.381   0.155042E-08
     0.190     0.397   0.356722E-09
     0.190     0.413   0.781508E-10
     0.190     0.429   0.163074E-10
     0.190     0.444   0.324190E-11
     0.190     0.460   0.614153E-12
     0.190     0.476   0.110892E-12
     0.190     0.492   0.190871E-13
     0.190     0.508   0.313217E-14
     0.190     0.524   0.490068E-15
     0.190     0.540   0.731123E-16
     0.190     0.556   0.104004E-16
     0.190     0.571   0.141065E-17
     0.190     0.587   0.182416E-18
     0.190     0.603   0.224869E-19
     0.190     0.619   0.264207E-20
     0.190     0.635   0.295811E-21
     0.190     0.651   0.315518E-22
     0.190     0.667   0.320506E-23
     0.190     0.683   0.309947E-24
     0.190     0.698   0.285230E-25
     0.190     0.714   0.249657E-26
     0.190     0.730   0.207726E-27
     0.190     0.746   0.164198E-28
     0.190     0.762   0.123217E-29
     0.190     0.778   0.877119E-31
     0.190     0.794   0.591772E-32
     0.190     0.810   0.378040E-33
     0.190     0.825   0.228426E-34
     0.190     0.841   0.130395E-35
     0.190     0.857   0.702281E-37
     0.190     0.873   0.356337E-38
     0.190     0.889   0.170062E-39
     0.190     0.905   0.762009E-41
     0.190     0.921   0.319924E-42
     0.190     0.937   0.125570E-43
     0.190     0.952   0.459598E-45
     0.190     0.968   0.156415E-46
     0.190     0.984   0.492996E-48