Title="Temperature Data"
Variables="X","Y","T"
 
Zone I=   128, J=   128, F=POINT
     0.000     0.000   0.467902-309
     0.000     0.008    0.00000    
     0.000     0.016    0.00000    
     0.000     0.024   0.202567-321
     0.000     0.031   0.296439-322
     0.000     0.039    0.00000    
     0.000     0.047   0.467902-309
     0.000     0.055   0.467902-309
     0.000     0.063   0.467902-309
     0.000     0.071    0.00000    
     0.000     0.079   0.212200-313
     0.000     0.087    0.00000    
     0.000     0.094    0.00000    
     0.000     0.102   0.467902-309
     0.000     0.110    0.00000    
     0.000     0.118    0.00000    
     0.000     0.126    0.00000    
     0.000     0.134   0.467902-309
     0.000     0.142   0.424399-313
     0.000     0.150   0.467902-309
     0.000     0.157   0.467902-309
     0.000     0.165   0.636599-313
     0.000     0.173   0.212200-313
     0.000     0.181    0.00000    
     0.000     0.189   0.494066-323
     0.000     0.197    0.00000    
     0.000     0.205   0.212200-313
     0.000     0.213    0.00000    
     0.000     0.220   0.467902-309
     0.000     0.228   0.127320-312
     0.000     0.236   0.212200-313
     0.000     0.244    0.00000    
     0.000     0.252    0.00000    
     0.000     0.260    0.00000    
     0.000     0.268    0.00000    
     0.000     0.276    0.00000    
     0.000     0.283    0.00000    
     0.000     0.291    0.00000    
     0.000     0.299    0.00000    
     0.000     0.307    0.00000    
     0.000     0.315    0.00000    
     0.000     0.323    0.00000    
     0.000     0.331    0.00000    
     0.000     0.339    0.00000    
     0.000     0.346    0.00000    
     0.000     0.354    0.00000    
     0.000     0.362    0.00000    
     0.000     0.370    0.00000    
     0.000     0.378    0.00000    
     0.000     0.386    0.00000    
     0.000     0.394    0.00000    
     0.000     0.402    0.00000    
     0.000     0.409    0.00000    
     0.000     0.417    0.00000    
     0.000     0.425    0.00000    
     0.000     0.433    0.00000    
     0.000     0.441    0.00000    
     0.000     0.449    0.00000    
     0.000     0.457    0.00000    
     0.000     0.465    0.00000    
     0.000     0.472    0.00000    
     0.000     0.480    0.00000    
     0.000     0.488    0.00000    
     0.000     0.496    0.00000    
     0.000     0.504    0.00000    
     0.000     0.512    0.00000    
     0.000     0.520    0.00000    
     0.000     0.528    0.00000    
     0.000     0.535    0.00000    
     0.000     0.543    0.00000    
     0.000     0.551    0.00000    
     0.000     0.559    0.00000    
     0.000     0.567    0.00000    
     0.000     0.575    0.00000    
     0.000     0.583    0.00000    
     0.000     0.591    0.00000    
     0.000     0.598    0.00000    
     0.000     0.606    0.00000    
     0.000     0.614    0.00000    
     0.000     0.622    0.00000    
     0.000     0.630    0.00000    
     0.000     0.638    0.00000    
     0.000     0.646    0.00000    
     0.000     0.654    0.00000    
     0.000     0.661    0.00000    
     0.000     0.669    0.00000    
     0.000     0.677    0.00000    
     0.000     0.685    0.00000    
     0.000     0.693    0.00000    
     0.000     0.701    0.00000    
     0.000     0.709    0.00000    
     0.000     0.717    0.00000    
     0.000     0.724    0.00000    
     0.000     0.732    0.00000    
     0.000     0.740    0.00000    
     0.000     0.748    0.00000    
     0.000     0.756    0.00000    
     0.000     0.764    0.00000    
     0.000     0.772    0.00000    
     0.000     0.780    0.00000    
     0.000     0.787    0.00000    
     0.000     0.795    0.00000    
     0.000     0.803    0.00000    
     0.000     0.811    0.00000    
     0.000     0.819    0.00000    
     0.000     0.827    0.00000    
     0.000     0.835    0.00000    
     0.000     0.843    0.00000    
     0.000     0.850    0.00000    
     0.000     0.858    0.00000    
     0.000     0.866    0.00000    
     0.000     0.874    0.00000    
     0.000     0.882    0.00000    
     0.000     0.890    0.00000    
     0.000     0.898    0.00000    
     0.000     0.906    0.00000    
     0.000     0.913    0.00000    
     0.000     0.921    0.00000    
     0.000     0.929    0.00000    
     0.000     0.937    0.00000    
     0.000     0.945    0.00000    
     0.000     0.953    0.00000    
     0.000     0.961    0.00000    
     0.000     0.969    0.00000    
     0.000     0.976    0.00000    
     0.000     0.984    0.00000    
     0.000     0.992    0.00000    
     0.000     1.000    0.00000    
     0.008     0.000    0.00000    
     0.008     0.008   0.940697E-05
     0.008     0.016   0.177445E-04
     0.008     0.024   0.241449E-04
     0.008     0.031   0.280905E-04
     0.008     0.039   0.294747E-04
     0.008     0.047   0.285672E-04
     0.008     0.055   0.259057E-04
     0.008     0.063   0.221520E-04
     0.008     0.071   0.179536E-04
     0.008     0.079   0.138414E-04
     0.008     0.087   0.101781E-04
     0.008     0.094   0.715341E-05
     0.008     0.102   0.481342E-05
     0.008     0.110   0.310525E-05
     0.008     0.118   0.192294E-05
     0.008     0.126   0.114424E-05
     0.008     0.134   0.654880E-06
     0.008     0.142   0.360804E-06
     0.008     0.150   0.191509E-06
     0.008     0.157   0.980014E-07
     0.008     0.165   0.483841E-07
     0.008     0.173   0.230611E-07
     0.008     0.181   0.106178E-07
     0.008     0.189   0.472525E-08
     0.008     0.197   0.203372E-08
     0.008     0.205   0.846971E-09
     0.008     0.213   0.341496E-09
     0.008     0.220   0.133370E-09
     0.008     0.228   0.504771E-10
     0.008     0.236   0.185225E-10
     0.008     0.244   0.659272E-11
     0.008     0.252   0.227709E-11
     0.008     0.260   0.763537E-12
     0.008     0.268   0.248649E-12
     0.008     0.276   0.786724E-13
     0.008     0.283   0.241936E-13
     0.008     0.291   0.723403E-14
     0.008     0.299   0.210385E-14
     0.008     0.307   0.595326E-15
     0.008     0.315   0.163962E-15
     0.008     0.323   0.439659E-16
     0.008     0.331   0.114819E-16
     0.008     0.339   0.292119E-17
     0.008     0.346   0.724242E-18
     0.008     0.354   0.175028E-18
     0.008     0.362   0.412426E-19
     0.008     0.370   0.947797E-20
     0.008     0.378   0.212483E-20
     0.008     0.386   0.464814E-21
     0.008     0.394   0.992390E-22
     0.008     0.402   0.206839E-22
     0.008     0.409   0.420947E-23
     0.008     0.417   0.836675E-24
     0.008     0.425   0.162447E-24
     0.008     0.433   0.308161E-25
     0.008     0.441   0.571267E-26
     0.008     0.449   0.103508E-26
     0.008     0.457   0.183343E-27
     0.008     0.465   0.317526E-28
     0.008     0.472   0.537767E-29
     0.008     0.480   0.890796E-30
     0.008     0.488   0.144344E-30
     0.008     0.496   0.228833E-31
     0.008     0.504   0.354978E-32
     0.008     0.512   0.538898E-33
     0.008     0.520   0.800741E-34
     0.008     0.528   0.116469E-34
     0.008     0.535   0.165852E-35
     0.008     0.543   0.231242E-36
     0.008     0.551   0.315720E-37
     0.008     0.559   0.422155E-38
     0.008     0.567   0.552868E-39
     0.008     0.575   0.709239E-40
     0.008     0.583   0.891308E-41
     0.008     0.591   0.109740E-41
     0.008     0.598   0.132386E-42
     0.008     0.606   0.156492E-43
     0.008     0.614   0.181281E-44
     0.008     0.622   0.205804E-45
     0.008     0.630   0.228994E-46
     0.008     0.638   0.249744E-47
     0.008     0.646   0.266987E-48
     0.008     0.654   0.279793E-49
     0.008     0.661   0.287447E-50
     0.008     0.669   0.289517E-51
     0.008     0.677   0.285896E-52
     0.008     0.685   0.276806E-53
     0.008     0.693   0.262782E-54
     0.008     0.701   0.244616E-55
     0.008     0.709   0.223282E-56
     0.008     0.717   0.199856E-57
     0.008     0.724   0.175423E-58
     0.008     0.732   0.150998E-59
     0.008     0.740   0.127461E-60
     0.008     0.748   0.105514E-61
     0.008     0.756   0.856604E-63
     0.008     0.764   0.682003E-64
     0.008     0.772   0.532514E-65
     0.008     0.780   0.407770E-66
     0.008     0.787   0.306223E-67
     0.008     0.795   0.225526E-68
     0.008     0.803   0.162887E-69
     0.008     0.811   0.115372E-70
     0.008     0.819   0.801373E-72
     0.008     0.827   0.545857E-73
     0.008     0.835   0.364604E-74
     0.008     0.843   0.238810E-75
     0.008     0.850   0.153376E-76
     0.008     0.858   0.965877E-78
     0.008     0.866   0.596387E-79
     0.008     0.874   0.361042E-80
     0.008     0.882   0.214285E-81
     0.008     0.890   0.124683E-82
     0.008     0.898   0.711184E-84
     0.008     0.906   0.397639E-85
     0.008     0.913   0.217923E-86
     0.008     0.921   0.117056E-87
     0.008     0.929   0.616216E-89
     0.008     0.937   0.317896E-90
     0.008     0.945   0.160700E-91
     0.008     0.953   0.795961E-93
     0.008     0.961   0.386253E-94
     0.008     0.969   0.183618E-95
     0.008     0.976   0.855026E-97
     0.008     0.984   0.389959E-98
     0.008     0.992   0.173850E-99
     0.008     1.000    0.00000    
     0.016     0.000    0.00000    
     0.016     0.008   0.188082E-04
     0.016     0.016   0.354782E-04
     0.016     0.024   0.482750E-04
     0.016     0.031   0.561639E-04
     0.016     0.039   0.589314E-04
     0.016     0.047   0.571168E-04
     0.016     0.055   0.517955E-04
     0.016     0.063   0.442905E-04
     0.016     0.071   0.358962E-04
     0.016     0.079   0.276744E-04
     0.016     0.087   0.203499E-04
     0.016     0.094   0.143024E-04
     0.016     0.102   0.962389E-05
     0.016     0.110   0.620861E-05
     0.016     0.118   0.384470E-05
     0.016     0.126   0.228778E-05
     0.016     0.134   0.130936E-05
     0.016     0.142   0.721387E-06
     0.016     0.150   0.382900E-06
     0.016     0.157   0.195943E-06
     0.016     0.165   0.967385E-07
     0.016     0.173   0.461082E-07
     0.016     0.181   0.212292E-07
     0.016     0.189   0.944760E-08
     0.016     0.197   0.406619E-08
     0.016     0.205   0.169342E-08
     0.016     0.213   0.682782E-09
     0.016     0.220   0.266658E-09
     0.016     0.228   0.100923E-09
     0.016     0.236   0.370336E-10
     0.016     0.244   0.131814E-10
     0.016     0.252   0.455280E-11
     0.016     0.260   0.152661E-11
     0.016     0.268   0.497146E-12
     0.016     0.276   0.157297E-12
     0.016     0.283   0.483724E-13
     0.016     0.291   0.144636E-13
     0.016     0.299   0.420642E-14
     0.016     0.307   0.119029E-14
     0.016     0.315   0.327823E-15
     0.016     0.323   0.879050E-16
     0.016     0.331   0.229567E-16
     0.016     0.339   0.584059E-17
     0.016     0.346   0.144804E-17
     0.016     0.354   0.349948E-18
     0.016     0.362   0.824600E-19
     0.016     0.370   0.189501E-19
     0.016     0.378   0.424836E-20
     0.016     0.386   0.929343E-21
     0.016     0.394   0.198417E-21
     0.016     0.402   0.413552E-22
     0.016     0.409   0.841636E-23
     0.016     0.417   0.167284E-23
     0.016     0.425   0.324795E-24
     0.016     0.433   0.616134E-25
     0.016     0.441   0.114218E-25
     0.016     0.449   0.206953E-26
     0.016     0.457   0.366573E-27
     0.016     0.465   0.634858E-28
     0.016     0.472   0.107521E-28
     0.016     0.480   0.178105E-29
     0.016     0.488   0.288599E-30
     0.016     0.496   0.457526E-31
     0.016     0.504   0.709739E-32
     0.016     0.512   0.107747E-32
     0.016     0.520   0.160099E-33
     0.016     0.528   0.232868E-34
     0.016     0.535   0.331602E-35
     0.016     0.543   0.462343E-36
     0.016     0.551   0.631247E-37
     0.016     0.559   0.844052E-38
     0.016     0.567   0.110540E-38
     0.016     0.575   0.141804E-39
     0.016     0.583   0.178207E-40
     0.016     0.591   0.219413E-41
     0.016     0.598   0.264691E-42
     0.016     0.606   0.312889E-43
     0.016     0.614   0.362452E-44
     0.016     0.622   0.411482E-45
     0.016     0.630   0.457848E-46
     0.016     0.638   0.499334E-47
     0.016     0.646   0.533811E-48
     0.016     0.654   0.559414E-49
     0.016     0.661   0.574718E-50
     0.016     0.669   0.578857E-51
     0.016     0.677   0.571616E-52
     0.016     0.685   0.553443E-53
     0.016     0.693   0.525404E-54
     0.016     0.701   0.489082E-55
     0.016     0.709   0.446428E-56
     0.016     0.717   0.399591E-57
     0.016     0.724   0.350739E-58
     0.016     0.732   0.301903E-59
     0.016     0.740   0.254844E-60
     0.016     0.748   0.210964E-61
     0.016     0.756   0.171268E-62
     0.016     0.764   0.136359E-63
     0.016     0.772   0.106470E-64
     0.016     0.780   0.815290E-66
     0.016     0.787   0.612258E-67
     0.016     0.795   0.450913E-68
     0.016     0.803   0.325673E-69
     0.016     0.811   0.230674E-70
     0.016     0.819   0.160226E-71
     0.016     0.827   0.109138E-72
     0.016     0.835   0.728986E-74
     0.016     0.843   0.477474E-75
     0.016     0.850   0.306658E-76
     0.016     0.858   0.193116E-77
     0.016     0.866   0.119241E-78
     0.016     0.874   0.721863E-80
     0.016     0.882   0.428439E-81
     0.016     0.890   0.249290E-82
     0.016     0.898   0.142193E-83
     0.016     0.906   0.795035E-85
     0.016     0.913   0.435713E-86
     0.016     0.921   0.234041E-87
     0.016     0.929   0.123205E-88
     0.016     0.937   0.635598E-90
     0.016     0.945   0.321303E-91
     0.016     0.953   0.159144E-92
     0.016     0.961   0.772269E-94
     0.016     0.969   0.367123E-95
     0.016     0.976   0.170953E-96
     0.016     0.984   0.779679E-98
     0.016     0.992   0.347594E-99
     0.016     1.000    0.00000    
     0.024     0.000    0.00000    
     0.024     0.008   0.281979E-04
     0.024     0.016   0.531902E-04
     0.024     0.024   0.723756E-04
     0.024     0.031   0.842028E-04
     0.024     0.039   0.883520E-04
     0.024     0.047   0.856316E-04
     0.024     0.055   0.776536E-04
     0.024     0.063   0.664018E-04
     0.024     0.071   0.538169E-04
     0.024     0.079   0.414904E-04
     0.024     0.087   0.305093E-04
     0.024     0.094   0.214427E-04
     0.024     0.102   0.144285E-04
     0.024     0.110   0.930816E-05
     0.024     0.118   0.576411E-05
     0.024     0.126   0.342992E-05
     0.024     0.134   0.196304E-05
     0.024     0.142   0.108153E-05
     0.024     0.150   0.574057E-06
     0.024     0.157   0.293764E-06
     0.024     0.165   0.145034E-06
     0.024     0.173   0.691270E-07
     0.024     0.181   0.318275E-07
     0.024     0.189   0.141642E-07
     0.024     0.197   0.609617E-08
     0.024     0.205   0.253884E-08
     0.024     0.213   0.102365E-08
     0.024     0.220   0.399783E-09
     0.024     0.228   0.151308E-09
     0.024     0.236   0.555220E-10
     0.024     0.244   0.197620E-10
     0.024     0.252   0.682571E-11
     0.024     0.260   0.228874E-11
     0.024     0.268   0.745339E-12
     0.024     0.276   0.235825E-12
     0.024     0.283   0.725216E-13
     0.024     0.291   0.216844E-13
     0.024     0.299   0.630641E-14
     0.024     0.307   0.178452E-14
     0.024     0.315   0.491484E-15
     0.024     0.323   0.131790E-15
     0.024     0.331   0.344175E-16
     0.024     0.339   0.875641E-17
     0.024     0.346   0.217095E-17
     0.024     0.354   0.524655E-18
     0.024     0.362   0.123627E-18
     0.024     0.370   0.284107E-19
     0.024     0.378   0.636929E-20
     0.024     0.386   0.139330E-20
     0.024     0.394   0.297474E-21
     0.024     0.402   0.620012E-22
     0.024     0.409   0.126181E-22
     0.024     0.417   0.250798E-23
     0.024     0.425   0.486944E-24
     0.024     0.433   0.923730E-25
     0.024     0.441   0.171240E-25
     0.024     0.449   0.310271E-26
     0.024     0.457   0.549579E-27
     0.024     0.465   0.951801E-28
     0.024     0.472   0.161199E-28
     0.024     0.480   0.267021E-29
     0.024     0.488   0.432678E-30
     0.024     0.496   0.685939E-31
     0.024     0.504   0.106407E-31
     0.024     0.512   0.161538E-32
     0.024     0.520   0.240026E-33
     0.024     0.528   0.349123E-34
     0.024     0.535   0.497150E-35
     0.024     0.543   0.693161E-36
     0.024     0.551   0.946388E-37
     0.024     0.559   0.126543E-37
     0.024     0.567   0.165725E-38
     0.024     0.575   0.212598E-39
     0.024     0.583   0.267174E-40
     0.024     0.591   0.328951E-41
     0.024     0.598   0.396833E-42
     0.024     0.606   0.469094E-43
     0.024     0.614   0.543400E-44
     0.024     0.622   0.616908E-45
     0.024     0.630   0.686422E-46
     0.024     0.638   0.748620E-47
     0.024     0.646   0.800308E-48
     0.024     0.654   0.838694E-49
     0.024     0.661   0.861637E-50
     0.024     0.669   0.867843E-51
     0.024     0.677   0.856987E-52
     0.024     0.685   0.829741E-53
     0.024     0.693   0.787704E-54
     0.024     0.701   0.733248E-55
     0.024     0.709   0.669300E-56
     0.024     0.717   0.599080E-57
     0.024     0.724   0.525840E-58
     0.024     0.732   0.452624E-59
     0.024     0.740   0.382071E-60
     0.024     0.748   0.316285E-61
     0.024     0.756   0.256772E-62
     0.024     0.764   0.204434E-63
     0.024     0.772   0.159624E-64
     0.024     0.780   0.122231E-65
     0.024     0.787   0.917919E-67
     0.024     0.795   0.676025E-68
     0.024     0.803   0.488261E-69
     0.024     0.811   0.345834E-70
     0.024     0.819   0.240216E-71
     0.024     0.827   0.163623E-72
     0.024     0.835   0.109292E-73
     0.024     0.843   0.715846E-75
     0.024     0.850   0.459753E-76
     0.024     0.858   0.289527E-77
     0.024     0.866   0.178770E-78
     0.024     0.874   0.108224E-79
     0.024     0.882   0.642330E-81
     0.024     0.890   0.373744E-82
     0.024     0.898   0.213181E-83
     0.024     0.906   0.119194E-84
     0.024     0.913   0.653236E-86
     0.024     0.921   0.350882E-87
     0.024     0.929   0.184714E-88
     0.024     0.937   0.952910E-90
     0.024     0.945   0.481708E-91
     0.024     0.953   0.238594E-92
     0.024     0.961   0.115781E-93
     0.024     0.969   0.550404E-95
     0.024     0.976   0.256299E-96
     0.024     0.984   0.116892E-97
     0.024     0.992   0.521126E-99
     0.024     1.000    0.00000    
     0.031     0.000    0.00000    
     0.031     0.008   0.375703E-04
     0.031     0.016   0.708696E-04
     0.031     0.024   0.964319E-04
     0.031     0.031   0.112190E-03
     0.031     0.039   0.117719E-03
     0.031     0.047   0.114094E-03
     0.031     0.055   0.103464E-03
     0.031     0.063   0.884726E-04
     0.031     0.071   0.717046E-04
     0.031     0.079   0.552810E-04
     0.031     0.087   0.406500E-04
     0.031     0.094   0.285699E-04
     0.031     0.102   0.192242E-04
     0.031     0.110   0.124020E-04
     0.031     0.118   0.767999E-05
     0.031     0.126   0.456996E-05
     0.031     0.134   0.261551E-05
     0.031     0.142   0.144101E-05
     0.031     0.150   0.764863E-06
     0.031     0.157   0.391406E-06
     0.031     0.165   0.193240E-06
     0.031     0.173   0.921035E-07
     0.031     0.181   0.424064E-07
     0.031     0.189   0.188721E-07
     0.031     0.197   0.812242E-08
     0.031     0.205   0.338270E-08
     0.031     0.213   0.136389E-08
     0.031     0.220   0.532663E-09
     0.031     0.228   0.201600E-09
     0.031     0.236   0.739765E-10
     0.031     0.244   0.263306E-10
     0.031     0.252   0.909445E-11
     0.031     0.260   0.304948E-11
     0.031     0.268   0.993076E-12
     0.031     0.276   0.314208E-12
     0.031     0.283   0.966264E-13
     0.031     0.291   0.288919E-13
     0.031     0.299   0.840255E-14
     0.031     0.307   0.237766E-14
     0.031     0.315   0.654844E-15
     0.031     0.323   0.175595E-15
     0.031     0.331   0.458572E-16
     0.031     0.339   0.116669E-16
     0.031     0.346   0.289254E-17
     0.031     0.354   0.699040E-18
     0.031     0.362   0.164718E-18
     0.031     0.370   0.378539E-19
     0.031     0.378   0.848632E-20
     0.031     0.386   0.185641E-20
     0.031     0.394   0.396349E-21
     0.031     0.402   0.826092E-22
     0.031     0.409   0.168121E-22
     0.031     0.417   0.334158E-23
     0.031     0.425   0.648795E-24
     0.031     0.433   0.123076E-24
     0.031     0.441   0.228157E-25
     0.031     0.449   0.413400E-26
     0.031     0.457   0.732249E-27
     0.031     0.465   0.126816E-27
     0.031     0.472   0.214778E-28
     0.031     0.480   0.355774E-29
     0.031     0.488   0.576493E-30
     0.031     0.496   0.913933E-31
     0.031     0.504   0.141774E-31
     0.031     0.512   0.215230E-32
     0.031     0.520   0.319807E-33
     0.031     0.528   0.465165E-34
     0.031     0.535   0.662393E-35
     0.031     0.543   0.923555E-36
     0.031     0.551   0.126095E-36
     0.031     0.559   0.168604E-37
     0.031     0.567   0.220809E-38
     0.031     0.575   0.283262E-39
     0.031     0.583   0.355978E-40
     0.031     0.591   0.438288E-41
     0.031     0.598   0.528733E-42
     0.031     0.606   0.625012E-43
     0.031     0.614   0.724016E-44
     0.031     0.622   0.821956E-45
     0.031     0.630   0.914576E-46
     0.031     0.638   0.997447E-47
     0.031     0.646   0.106631E-47
     0.031     0.654   0.111746E-48
     0.031     0.661   0.114803E-49
     0.031     0.669   0.115630E-50
     0.031     0.677   0.114183E-51
     0.031     0.685   0.110553E-52
     0.031     0.693   0.104952E-53
     0.031     0.701   0.976967E-55
     0.031     0.709   0.891763E-56
     0.031     0.717   0.798203E-57
     0.031     0.724   0.700620E-58
     0.031     0.732   0.603068E-59
     0.031     0.740   0.509064E-60
     0.031     0.748   0.421412E-61
     0.031     0.756   0.342118E-62
     0.031     0.764   0.272384E-63
     0.031     0.772   0.212680E-64
     0.031     0.780   0.162858E-65
     0.031     0.787   0.122302E-66
     0.031     0.795   0.900723E-68
     0.031     0.803   0.650550E-69
     0.031     0.811   0.460783E-70
     0.031     0.819   0.320059E-71
     0.031     0.827   0.218009E-72
     0.031     0.835   0.145619E-73
     0.031     0.843   0.953780E-75
     0.031     0.850   0.612566E-76
     0.031     0.858   0.385760E-77
     0.031     0.866   0.238190E-78
     0.031     0.874   0.144196E-79
     0.031     0.882   0.855829E-81
     0.031     0.890   0.497969E-82
     0.031     0.898   0.284038E-83
     0.031     0.906   0.158813E-84
     0.031     0.913   0.870359E-86
     0.031     0.921   0.467509E-87
     0.031     0.929   0.246109E-88
     0.031     0.937   0.126964E-89
     0.031     0.945   0.641819E-91
     0.031     0.953   0.317898E-92
     0.031     0.961   0.154265E-93
     0.031     0.969   0.733348E-95
     0.031     0.976   0.341488E-96
     0.031     0.984   0.155745E-97
     0.031     0.992   0.694338E-99
     0.031     1.000    0.00000    
     0.039     0.000    0.00000    
     0.039     0.008   0.469198E-04
     0.039     0.016   0.885057E-04
     0.039     0.024   0.120429E-03
     0.039     0.031   0.140109E-03
     0.039     0.039   0.147013E-03
     0.039     0.047   0.142486E-03
     0.039     0.055   0.129211E-03
     0.039     0.063   0.110489E-03
     0.039     0.071   0.895485E-04
     0.039     0.079   0.690378E-04
     0.039     0.087   0.507659E-04
     0.039     0.094   0.356796E-04
     0.039     0.102   0.240082E-04
     0.039     0.110   0.154883E-04
     0.039     0.118   0.959118E-05
     0.039     0.126   0.570721E-05
     0.039     0.134   0.326639E-05
     0.039     0.142   0.179961E-05
     0.039     0.150   0.955201E-06
     0.039     0.157   0.488809E-06
     0.039     0.165   0.241329E-06
     0.039     0.173   0.115024E-06
     0.039     0.181   0.529594E-07
     0.039     0.189   0.235684E-07
     0.039     0.197   0.101437E-07
     0.039     0.205   0.422450E-08
     0.039     0.213   0.170330E-08
     0.039     0.220   0.665218E-09
     0.039     0.228   0.251768E-09
     0.039     0.236   0.923857E-10
     0.039     0.244   0.328830E-10
     0.039     0.252   0.113576E-10
     0.039     0.260   0.380835E-11
     0.039     0.268   0.124020E-11
     0.039     0.276   0.392400E-12
     0.039     0.283   0.120672E-12
     0.039     0.291   0.360817E-13
     0.039     0.299   0.104935E-13
     0.039     0.307   0.296935E-14
     0.039     0.315   0.817803E-15
     0.039     0.323   0.219292E-15
     0.039     0.331   0.572689E-16
     0.039     0.339   0.145702E-16
     0.039     0.346   0.361235E-17
     0.039     0.354   0.872998E-18
     0.039     0.362   0.205709E-18
     0.039     0.370   0.472739E-19
     0.039     0.378   0.105982E-19
     0.039     0.386   0.231838E-20
     0.039     0.394   0.494981E-21
     0.039     0.402   0.103167E-21
     0.039     0.409   0.209959E-22
     0.039     0.417   0.417314E-23
     0.039     0.425   0.810249E-24
     0.039     0.433   0.153704E-24
     0.039     0.441   0.284935E-25
     0.039     0.449   0.516275E-26
     0.039     0.457   0.914471E-27
     0.039     0.465   0.158375E-27
     0.039     0.472   0.268226E-28
     0.039     0.480   0.444309E-29
     0.039     0.488   0.719954E-30
     0.039     0.496   0.114137E-30
     0.039     0.504   0.177055E-31
     0.039     0.512   0.268790E-32
     0.039     0.520   0.399391E-33
     0.039     0.528   0.580923E-34
     0.039     0.535   0.827231E-35
     0.039     0.543   0.115338E-35
     0.039     0.551   0.157474E-36
     0.039     0.559   0.210561E-37
     0.039     0.567   0.275758E-38
     0.039     0.575   0.353752E-39
     0.039     0.583   0.444564E-40
     0.039     0.591   0.547358E-41
     0.039     0.598   0.660310E-42
     0.039     0.606   0.780547E-43
     0.039     0.614   0.904189E-44
     0.039     0.622   0.102650E-44
     0.039     0.630   0.114217E-45
     0.039     0.638   0.124566E-46
     0.039     0.646   0.133167E-47
     0.039     0.654   0.139554E-48
     0.039     0.661   0.143372E-49
     0.039     0.669   0.144404E-50
     0.039     0.677   0.142598E-51
     0.039     0.685   0.138065E-52
     0.039     0.693   0.131070E-53
     0.039     0.701   0.122009E-54
     0.039     0.709   0.111368E-55
     0.039     0.717   0.996838E-57
     0.039     0.724   0.874971E-58
     0.039     0.732   0.753143E-59
     0.039     0.740   0.635745E-60
     0.039     0.748   0.526281E-61
     0.039     0.756   0.427255E-62
     0.039     0.764   0.340167E-63
     0.039     0.772   0.265606E-64
     0.039     0.780   0.203386E-65
     0.039     0.787   0.152737E-66
     0.039     0.795   0.112487E-67
     0.039     0.803   0.812441E-69
     0.039     0.811   0.575449E-70
     0.039     0.819   0.399707E-71
     0.039     0.827   0.272261E-72
     0.039     0.835   0.181856E-73
     0.039     0.843   0.119113E-74
     0.039     0.850   0.765005E-76
     0.039     0.858   0.481757E-77
     0.039     0.866   0.297464E-78
     0.039     0.874   0.180079E-79
     0.039     0.882   0.106880E-80
     0.039     0.890   0.621890E-82
     0.039     0.898   0.354722E-83
     0.039     0.906   0.198333E-84
     0.039     0.913   0.108695E-85
     0.039     0.921   0.583850E-87
     0.039     0.929   0.307354E-88
     0.039     0.937   0.158559E-89
     0.039     0.945   0.801537E-91
     0.039     0.953   0.397007E-92
     0.039     0.961   0.192654E-93
     0.039     0.969   0.915844E-95
     0.039     0.976   0.426467E-96
     0.039     0.984   0.194502E-97
     0.039     0.992   0.867126E-99
     0.039     1.000    0.00000    
     0.047     0.000    0.00000    
     0.047     0.008   0.562406E-04
     0.047     0.016   0.106088E-03
     0.047     0.024   0.144353E-03
     0.047     0.031   0.167942E-03
     0.047     0.039   0.176218E-03
     0.047     0.047   0.170792E-03
     0.047     0.055   0.154880E-03
     0.047     0.063   0.132438E-03
     0.047     0.071   0.107338E-03
     0.047     0.079   0.827524E-04
     0.047     0.087   0.608507E-04
     0.047     0.094   0.427674E-04
     0.047     0.102   0.287775E-04
     0.047     0.110   0.185651E-04
     0.047     0.118   0.114965E-04
     0.047     0.126   0.684096E-05
     0.047     0.134   0.391527E-05
     0.047     0.142   0.215710E-05
     0.047     0.150   0.114495E-05
     0.047     0.157   0.585912E-06
     0.047     0.165   0.289269E-06
     0.047     0.173   0.137873E-06
     0.047     0.181   0.634799E-07
     0.047     0.189   0.282504E-07
     0.047     0.197   0.121588E-07
     0.047     0.205   0.506371E-08
     0.047     0.213   0.204167E-08
     0.047     0.220   0.797365E-09
     0.047     0.228   0.301783E-09
     0.047     0.236   0.110738E-09
     0.047     0.244   0.394153E-10
     0.047     0.252   0.136138E-10
     0.047     0.260   0.456488E-11
     0.047     0.268   0.148658E-11
     0.047     0.276   0.470351E-12
     0.047     0.283   0.144644E-12
     0.047     0.291   0.432494E-13
     0.047     0.299   0.125781E-13
     0.047     0.307   0.355922E-14
     0.047     0.315   0.980262E-15
     0.047     0.323   0.262855E-15
     0.047     0.331   0.686455E-16
     0.047     0.339   0.174646E-16
     0.047     0.346   0.432996E-17
     0.047     0.354   0.104642E-17
     0.047     0.362   0.246573E-18
     0.047     0.370   0.566650E-19
     0.047     0.378   0.127035E-19
     0.047     0.386   0.277894E-20
     0.047     0.394   0.593311E-21
     0.047     0.402   0.123661E-21
     0.047     0.409   0.251667E-22
     0.047     0.417   0.500215E-23
     0.047     0.425   0.971207E-24
     0.047     0.433   0.184238E-24
     0.047     0.441   0.341538E-25
     0.047     0.449   0.618835E-26
     0.047     0.457   0.109613E-26
     0.047     0.465   0.189836E-27
     0.047     0.472   0.321510E-28
     0.047     0.480   0.532572E-29
     0.047     0.488   0.862975E-30