Title="Temperature Data"
Variables="X","Y","T"
 
Zone I=    64, J=    64, F=POINT
     0.000     0.000   0.465100-309
     0.000     0.016    0.00000    
     0.000     0.032    0.00000    
     0.000     0.048   0.202567-321
     0.000     0.063   0.296439-322
     0.000     0.079    0.00000    
     0.000     0.095   0.465100-309
     0.000     0.111   0.465100-309
     0.000     0.127   0.465100-309
     0.000     0.143    0.00000    
     0.000     0.159   0.212200-313
     0.000     0.175    0.00000    
     0.000     0.190    0.00000    
     0.000     0.206   0.465100-309
     0.000     0.222    0.00000    
     0.000     0.238    0.00000    
     0.000     0.254    0.00000    
     0.000     0.270   0.465100-309
     0.000     0.286   0.424399-313
     0.000     0.302   0.465100-309
     0.000     0.317   0.465100-309
     0.000     0.333   0.636599-313
     0.000     0.349   0.212200-313
     0.000     0.365    0.00000    
     0.000     0.381   0.494066-323
     0.000     0.397    0.00000    
     0.000     0.413   0.212200-313
     0.000     0.429    0.00000    
     0.000     0.444   0.465100-309
     0.000     0.460   0.127320-312
     0.000     0.476   0.212200-313
     0.000     0.492    0.00000    
     0.000     0.508    0.00000    
     0.000     0.524    0.00000    
     0.000     0.540    0.00000    
     0.000     0.556    0.00000    
     0.000     0.571    0.00000    
     0.000     0.587    0.00000    
     0.000     0.603    0.00000    
     0.000     0.619    0.00000    
     0.000     0.635    0.00000    
     0.000     0.651    0.00000    
     0.000     0.667    0.00000    
     0.000     0.683    0.00000    
     0.000     0.698    0.00000    
     0.000     0.714    0.00000    
     0.000     0.730    0.00000    
     0.000     0.746    0.00000    
     0.000     0.762    0.00000    
     0.000     0.778    0.00000    
     0.000     0.794    0.00000    
     0.000     0.810    0.00000    
     0.000     0.825    0.00000    
     0.000     0.841    0.00000    
     0.000     0.857    0.00000    
     0.000     0.873    0.00000    
     0.000     0.889    0.00000    
     0.000     0.905    0.00000    
     0.000     0.921    0.00000    
     0.000     0.937    0.00000    
     0.000     0.952    0.00000    
     0.000     0.968    0.00000    
     0.000     0.984    0.00000    
     0.000     1.000    0.00000    
     0.016     0.000    0.00000    
     0.016     0.016   0.151016E-05
     0.016     0.032   0.460353E-08
     0.016     0.048   0.694647E-11
     0.016     0.063   0.691732E-14
     0.016     0.079   0.511350E-17
     0.016     0.095   0.299287E-20
     0.016     0.111   0.144454E-23
     0.016     0.127   0.591327E-27
     0.016     0.143   0.209551E-30
     0.016     0.159   0.652986E-34
     0.016     0.175   0.181140E-37
     0.016     0.190   0.451786E-41
     0.016     0.206   0.102143E-44
     0.016     0.222   0.210775E-48
     0.016     0.238   0.399281E-52
     0.016     0.254   0.697837E-56
     0.016     0.270   0.113011E-59
     0.016     0.286   0.170224E-63
     0.016     0.302   0.239274E-67
     0.016     0.317   0.314793E-71
     0.016     0.333   0.388641E-75
     0.016     0.349   0.451323E-79
     0.016     0.365   0.494039E-83
     0.016     0.381   0.510736E-87
     0.016     0.397   0.499511E-91
     0.016     0.413   0.462900E-95
     0.016     0.429   0.407047E-99
     0.016     0.444   0.340080-103
     0.016     0.460   0.270280-107
     0.016     0.476   0.204559-111
     0.016     0.492   0.147579-115
     0.016     0.508   0.101585-119
     0.016     0.524   0.667724-124
     0.016     0.540   0.419431-128
     0.016     0.556   0.251956-132
     0.016     0.571   0.144834-136
     0.016     0.587   0.797168-141
     0.016     0.603   0.420336-145
     0.016     0.619   0.212433-149
     0.016     0.635   0.102948-153
     0.016     0.651   0.478583-158
     0.016     0.667   0.213498-162
     0.016     0.683   0.914250-167
     0.016     0.698   0.375918-171
     0.016     0.714   0.148451-175
     0.016     0.730   0.563156-180
     0.016     0.746   0.205259-184
     0.016     0.762   0.718897-189
     0.016     0.778   0.241975-193
     0.016     0.794   0.782792-198
     0.016     0.810   0.243397-202
     0.016     0.825   0.727418-207
     0.016     0.841   0.208952-211
     0.016     0.857   0.576872-216
     0.016     0.873   0.153057-220
     0.016     0.889   0.390226-225
     0.016     0.905   0.955894-230
     0.016     0.921   0.224935-234
     0.016     0.937   0.508354-239
     0.016     0.952   0.110314-243
     0.016     0.968   0.229791-248
     0.016     0.984   0.459338-253
     0.016     1.000    0.00000    
     0.032     0.000    0.00000    
     0.032     0.016   0.301656E-05
     0.032     0.032   0.919561E-08
     0.032     0.048   0.138757E-10
     0.032     0.063   0.138174E-13
     0.032     0.079   0.102143E-16
     0.032     0.095   0.597830E-20
     0.032     0.111   0.288549E-23
     0.032     0.127   0.118118E-26
     0.032     0.143   0.418581E-30
     0.032     0.159   0.130435E-33
     0.032     0.175   0.361829E-37
     0.032     0.190   0.902448E-41
     0.032     0.206   0.204033E-44
     0.032     0.222   0.421025E-48
     0.032     0.238   0.797569E-52
     0.032     0.254   0.139394E-55
     0.032     0.270   0.225742E-59
     0.032     0.286   0.340025E-63
     0.032     0.302   0.477953E-67
     0.032     0.317   0.628803E-71
     0.032     0.333   0.776315E-75
     0.032     0.349   0.901525E-79
     0.032     0.365   0.986849E-83
     0.032     0.381   0.102020E-86
     0.032     0.397   0.997780E-91
     0.032     0.413   0.924650E-95
     0.032     0.429   0.813081E-99
     0.032     0.444   0.679314-103
     0.032     0.460   0.539889-107
     0.032     0.476   0.408609-111
     0.032     0.492   0.294791-115
     0.032     0.508   0.202917-119
     0.032     0.524   0.133379-123
     0.032     0.540   0.837819-128
     0.032     0.556   0.503286-132
     0.032     0.571   0.289308-136
     0.032     0.587   0.159235-140
     0.032     0.603   0.839627-145
     0.032     0.619   0.424338-149
     0.032     0.635   0.205640-153
     0.032     0.651   0.955976-158
     0.032     0.667   0.426465-162
     0.032     0.683   0.182623-166
     0.032     0.698   0.750901-171
     0.032     0.714   0.296534-175
     0.032     0.730   0.112491-179
     0.032     0.746   0.410008-184
     0.032     0.762   0.143601-188
     0.032     0.778   0.483348-193
     0.032     0.794   0.156364-197
     0.032     0.810   0.486189-202
     0.032     0.825   0.145303-206
     0.032     0.841   0.417384-211
     0.032     0.857   0.115231-215
     0.032     0.873   0.305733-220
     0.032     0.889   0.779483-225
     0.032     0.905   0.190941-229
     0.032     0.921   0.449310-234
     0.032     0.937   0.101544-238
     0.032     0.952   0.220354-243
     0.032     0.968   0.459011-248
     0.032     0.984   0.917534-253
     0.032     1.000    0.00000    
     0.048     0.000    0.00000    
     0.048     0.016   0.451547E-05
     0.048     0.032   0.137648E-07
     0.048     0.048   0.207704E-10
     0.048     0.063   0.206832E-13
     0.048     0.079   0.152897E-16
     0.048     0.095   0.894887E-20
     0.048     0.111   0.431926E-23
     0.048     0.127   0.176810E-26
     0.048     0.143   0.626570E-30
     0.048     0.159   0.195247E-33
     0.048     0.175   0.541619E-37
     0.048     0.190   0.135087E-40
     0.048     0.206   0.305415E-44
     0.048     0.222   0.630229E-48
     0.048     0.238   0.119387E-51
     0.048     0.254   0.208658E-55
     0.048     0.270   0.337911E-59
     0.048     0.286   0.508981E-63
     0.048     0.302   0.715444E-67
     0.048     0.317   0.941249E-71
     0.048     0.333   0.116206E-74
     0.048     0.349   0.134948E-78
     0.048     0.365   0.147721E-82
     0.048     0.381   0.152713E-86
     0.048     0.397   0.149357E-90
     0.048     0.413   0.138410E-94
     0.048     0.429   0.121709E-98
     0.048     0.444   0.101686-102
     0.048     0.460   0.808155-107
     0.048     0.476   0.611643-111
     0.048     0.492   0.441269-115
     0.048     0.508   0.303745-119
     0.048     0.524   0.199654-123
     0.048     0.540   0.125412-127
     0.048     0.556   0.753365-132
     0.048     0.571   0.433062-136
     0.048     0.587   0.238358-140
     0.048     0.603   0.125683-144
     0.048     0.619   0.635189-149
     0.048     0.635   0.307821-153
     0.048     0.651   0.143099-157
     0.048     0.667   0.638371-162
     0.048     0.683   0.273366-166
     0.048     0.698   0.112402-170
     0.048     0.714   0.443879-175
     0.048     0.730   0.168387-179
     0.048     0.746   0.613737-184
     0.048     0.762   0.214955-188
     0.048     0.778   0.723520-193
     0.048     0.794   0.234060-197
     0.048     0.810   0.727772-202
     0.048     0.825   0.217502-206
     0.048     0.841   0.624778-211
     0.048     0.857   0.172488-215
     0.048     0.873   0.457649-220
     0.048     0.889   0.116680-224
     0.048     0.905   0.285818-229
     0.048     0.921   0.672569-234
     0.048     0.937   0.152001-238
     0.048     0.952   0.329847-243
     0.048     0.968   0.687090-248
     0.048     0.984   0.137345-252
     0.048     1.000    0.00000    
     0.063     0.000    0.00000    
     0.063     0.016   0.600315E-05
     0.063     0.032   0.182998E-07
     0.063     0.048   0.276135E-10
     0.063     0.063   0.274976E-13
     0.063     0.079   0.203271E-16
     0.063     0.095   0.118972E-19
     0.063     0.111   0.574230E-23
     0.063     0.127   0.235063E-26
     0.063     0.143   0.833002E-30
     0.063     0.159   0.259573E-33
     0.063     0.175   0.720063E-37
     0.063     0.190   0.179593E-40
     0.063     0.206   0.406038E-44
     0.063     0.222   0.837866E-48
     0.063     0.238   0.158721E-51
     0.063     0.254   0.277403E-55
     0.063     0.270   0.449240E-59
     0.063     0.286   0.676671E-63
     0.063     0.302   0.951156E-67
     0.063     0.317   0.125136E-70
     0.063     0.333   0.154492E-74
     0.063     0.349   0.179409E-78
     0.063     0.365   0.196389E-82
     0.063     0.381   0.203027E-86
     0.063     0.397   0.198564E-90
     0.063     0.413   0.184011E-94
     0.063     0.429   0.161808E-98
     0.063     0.444   0.135188-102
     0.063     0.460   0.107441-106
     0.063     0.476   0.813157-111
     0.063     0.492   0.586651-115
     0.063     0.508   0.403818-119
     0.063     0.524   0.265432-123
     0.063     0.540   0.166731-127
     0.063     0.556   0.100157-131
     0.063     0.571   0.575740-136
     0.063     0.587   0.316888-140
     0.063     0.603   0.167091-144
     0.063     0.619   0.844459-149
     0.063     0.635   0.409237-153
     0.063     0.651   0.190245-157
     0.063     0.667   0.848691-162
     0.063     0.683   0.363430-166
     0.063     0.698   0.149434-170
     0.063     0.714   0.590120-175
     0.063     0.730   0.223864-179
     0.063     0.746   0.815940-184
     0.063     0.762   0.285774-188
     0.063     0.778   0.961893-193
     0.063     0.794   0.311174-197
     0.063     0.810   0.967546-202
     0.063     0.825   0.289161-206
     0.063     0.841   0.830619-211
     0.063     0.857   0.229317-215
     0.063     0.873   0.608428-220
     0.063     0.889   0.155122-224
     0.063     0.905   0.379985-229
     0.063     0.921   0.894155-234
     0.063     0.937   0.202079-238
     0.063     0.952   0.438519-243
     0.063     0.968   0.913460-248
     0.063     0.984   0.182595-252
     0.063     1.000    0.00000    
     0.079     0.000    0.00000    
     0.079     0.016   0.747590E-05
     0.079     0.032   0.227893E-07
     0.079     0.048   0.343879E-10
     0.079     0.063   0.342435E-13
     0.079     0.079   0.253139E-16
     0.079     0.095   0.148159E-19
     0.079     0.111   0.715106E-23
     0.079     0.127   0.292731E-26
     0.079     0.143   0.103736E-29
     0.079     0.159   0.323255E-33
     0.079     0.175   0.896716E-37
     0.079     0.190   0.223652E-40
     0.079     0.206   0.505651E-44
     0.079     0.222   0.104342E-47
     0.079     0.238   0.197660E-51
     0.079     0.254   0.345458E-55
     0.079     0.270   0.559452E-59
     0.079     0.286   0.842679E-63
     0.079     0.302   0.118450E-66
     0.079     0.317   0.155835E-70
     0.079     0.333   0.192393E-74
     0.079     0.349   0.223423E-78
     0.079     0.365   0.244569E-82
     0.079     0.381   0.252835E-86
     0.079     0.397   0.247278E-90
     0.079     0.413   0.229154E-94
     0.079     0.429   0.201505E-98
     0.079     0.444   0.168353-102
     0.079     0.460   0.133800-106
     0.079     0.476   0.101265-110
     0.079     0.492   0.730575-115
     0.079     0.508   0.502886-119
     0.079     0.524   0.330550-123
     0.079     0.540   0.207635-127
     0.079     0.556   0.124729-131
     0.079     0.571   0.716986-136
     0.079     0.587   0.394630-140
     0.079     0.603   0.208083-144
     0.079     0.619   0.105163-148
     0.079     0.635   0.509635-153
     0.079     0.651   0.236918-157
     0.079     0.667   0.105690-161
     0.079     0.683   0.452591-166
     0.079     0.698   0.186095-170
     0.079     0.714   0.734895-175
     0.079     0.730   0.278785-179
     0.079     0.746   0.101612-183
     0.079     0.762   0.355883-188
     0.079     0.778   0.119787-192
     0.079     0.794   0.387514-197
     0.079     0.810   0.120491-201
     0.079     0.825   0.360101-206
     0.079     0.841   0.103440-210
     0.079     0.857   0.285575-215
     0.079     0.873   0.757693-220
     0.079     0.889   0.193178-224
     0.079     0.905   0.473207-229
     0.079     0.921   0.111352-233
     0.079     0.937   0.251656-238
     0.079     0.952   0.546101-243
     0.079     0.968   0.113756-247
     0.079     0.984   0.227391-252
     0.079     1.000    0.00000    
     0.095     0.000    0.00000    
     0.095     0.016   0.893007E-05
     0.095     0.032   0.272222E-07
     0.095     0.048   0.410768E-10
     0.095     0.063   0.409044E-13
     0.095     0.079   0.302378E-16
     0.095     0.095   0.176978E-19
     0.095     0.111   0.854204E-23
     0.095     0.127   0.349671E-26
     0.095     0.143   0.123914E-29
     0.095     0.159   0.386132E-33
     0.095     0.175   0.107114E-36
     0.095     0.190   0.267156E-40
     0.095     0.206   0.604007E-44
     0.095     0.222   0.124638E-47
     0.095     0.238   0.236108E-51
     0.095     0.254   0.412654E-55
     0.095     0.270   0.668273E-59
     0.095     0.286   0.100659E-62
     0.095     0.302   0.141491E-66
     0.095     0.317   0.186147E-70
     0.095     0.333   0.229816E-74
     0.095     0.349   0.266882E-78
     0.095     0.365   0.292141E-82
     0.095     0.381   0.302015E-86
     0.095     0.397   0.295377E-90
     0.095     0.413   0.273728E-94
     0.095     0.429   0.240700E-98
     0.095     0.444   0.201100-102
     0.095     0.460   0.159826-106
     0.095     0.476   0.120962-110
     0.095     0.492   0.872682-115
     0.095     0.508   0.600705-119
     0.095     0.524   0.394847-123
     0.095     0.540   0.248023-127
     0.095     0.556   0.148990-131
     0.095     0.571   0.856450-136
     0.095     0.587   0.471392-140
     0.095     0.603   0.248559-144
     0.095     0.619   0.125619-148
     0.095     0.635   0.608766-153
     0.095     0.651   0.283002-157
     0.095     0.667   0.126248-161
     0.095     0.683   0.540626-166
     0.095     0.698   0.222293-170
     0.095     0.714   0.877842-175
     0.095     0.730   0.333013-179
     0.095     0.746   0.121376-183
     0.095     0.762   0.425108-188
     0.095     0.778   0.143088-192
     0.095     0.794   0.462891-197
     0.095     0.810   0.143929-201
     0.095     0.825   0.430146-206
     0.095     0.841   0.123560-210
     0.095     0.857   0.341124-215
     0.095     0.873   0.905076-220
     0.095     0.889   0.230754-224
     0.095     0.905   0.565252-229
     0.095     0.921   0.133011-233
     0.095     0.937   0.300606-238
     0.095     0.952   0.652325-243
     0.095     0.968   0.135883-247
     0.095     0.984   0.271622-252
     0.095     1.000    0.00000    
     0.111     0.000    0.00000    
     0.111     0.016   0.103620E-04
     0.111     0.032   0.315873E-07
     0.111     0.048   0.476636E-10
     0.111     0.063   0.474636E-13
     0.111     0.079   0.350865E-16
     0.111     0.095   0.205358E-19
     0.111     0.111   0.991178E-23
     0.111     0.127   0.405742E-26
     0.111     0.143   0.143784E-29
     0.111     0.159   0.448050E-33
     0.111     0.175   0.124290E-36
     0.111     0.190   0.309995E-40
     0.111     0.206   0.700862E-44
     0.111     0.222   0.144624E-47
     0.111     0.238   0.273968E-51
     0.111     0.254   0.478825E-55
     0.111     0.270   0.775433E-59
     0.111     0.286   0.116800E-62
     0.111     0.302   0.164179E-66
     0.111     0.317   0.215997E-70
     0.111     0.333   0.266668E-74
     0.111     0.349   0.309678E-78
     0.111     0.365   0.338987E-82
     0.111     0.381   0.350444E-86
     0.111     0.397   0.342742E-90
     0.111     0.413   0.317621E-94
     0.111     0.429   0.279297E-98
     0.111     0.444   0.233348-102
     0.111     0.460   0.185454-106
     0.111     0.476   0.140359-110
     0.111     0.492   0.101262-114
     0.111     0.508   0.697030-119
     0.111     0.524   0.458162-123
     0.111     0.540   0.287795-127
     0.111     0.556   0.172881-131
     0.111     0.571   0.993785-136
     0.111     0.587   0.546981-140
     0.111     0.603   0.288416-144
     0.111     0.619   0.145762-148
     0.111     0.635   0.706384-153
     0.111     0.651   0.328382-157
     0.111     0.667   0.146493-161
     0.111     0.683   0.627317-166
     0.111     0.698   0.257938-170
     0.111     0.714   0.101861-174
     0.111     0.730   0.386412-179
     0.111     0.746   0.140840-183
     0.111     0.762   0.493275-188
     0.111     0.778   0.166032-192
     0.111     0.794   0.537117-197
     0.111     0.810   0.167008-201
     0.111     0.825   0.499122-206
     0.111     0.841   0.143373-210
     0.111     0.857   0.395824-215
     0.111     0.873   0.105021-219
     0.111     0.889   0.267756-224
     0.111     0.905   0.655892-229
     0.111     0.921   0.154340-233
     0.111     0.937   0.348809-238
     0.111     0.952   0.756928-243
     0.111     0.968   0.157672-247
     0.111     0.984   0.315177-252
     0.111     1.000    0.00000    
     0.127     0.000    0.00000    
     0.127     0.016   0.117682E-04
     0.127     0.032   0.358740E-07
     0.127     0.048   0.541319E-10
     0.127     0.063   0.539047E-13
     0.127     0.079   0.398481E-16
     0.127     0.095   0.233226E-19
     0.127     0.111   0.112569E-22
     0.127     0.127   0.460804E-26
     0.127     0.143   0.163297E-29
     0.127     0.159   0.508853E-33
     0.127     0.175   0.141157E-36
     0.127     0.190   0.352064E-40
     0.127     0.206   0.795974E-44
     0.127     0.222   0.164251E-47
     0.127     0.238   0.311148E-51
     0.127     0.254   0.543805E-55
     0.127     0.270   0.880665E-59
     0.127     0.286   0.132651E-62
     0.127     0.302   0.186459E-66
     0.127     0.317   0.245309E-70
     0.127     0.333   0.302857E-74
     0.127     0.349   0.351704E-78
     0.127     0.365   0.384990E-82
     0.127     0.381   0.398002E-86
     0.127     0.397   0.389255E-90
     0.127     0.413   0.360725E-94
     0.127     0.429   0.317200E-98
     0.127     0.444   0.265015-102
     0.127     0.460   0.210622-106
     0.127     0.476   0.159407-110
     0.127     0.492   0.115004-114
     0.127     0.508   0.791622-119
     0.127     0.524   0.520338-123
     0.127     0.540   0.326851-127
     0.127     0.556   0.196342-131
     0.127     0.571   0.112865-135
     0.127     0.587   0.621210-140
     0.127     0.603   0.327556-144
     0.127     0.619   0.165543-148
     0.127     0.635   0.802245-153
     0.127     0.651   0.372946-157
     0.127     0.667   0.166373-161
     0.127     0.683   0.712449-166
     0.127     0.698   0.292942-170
     0.127     0.714   0.115684-174
     0.127     0.730   0.438851-179
     0.127     0.746   0.159952-183
     0.127     0.762   0.560216-188
     0.127     0.778   0.188564-192
     0.127     0.794   0.610008-197
     0.127     0.810   0.189672-201
     0.127     0.825   0.566856-206
     0.127     0.841   0.162830-210
     0.127     0.857   0.449540-215
     0.127     0.873   0.119273-219
     0.127     0.889   0.304092-224
     0.127     0.905   0.744901-229
     0.127     0.921   0.175285-233
     0.127     0.937   0.396145-238
     0.127     0.952   0.859648-243
     0.127     0.968   0.179070-247
     0.127     0.984   0.357949-252
     0.127     1.000    0.00000    
     0.143     0.000   0.465100-309
     0.143     0.016   0.131452E-04
     0.143     0.032   0.400714E-07
     0.143     0.048   0.604656E-10
     0.143     0.063   0.602118E-13
     0.143     0.079   0.445105E-16
     0.143     0.095   0.260515E-19
     0.143     0.111   0.125740E-22
     0.143     0.127   0.514721E-26
     0.143     0.143   0.182404E-29
     0.143     0.159   0.568392E-33
     0.143     0.175   0.157673E-36
     0.143     0.190   0.393257E-40
     0.143     0.206   0.889107E-44
     0.143     0.222   0.183469E-47
     0.143     0.238   0.347554E-51
     0.143     0.254   0.607433E-55
     0.143     0.270   0.983708E-59
     0.143     0.286   0.148172E-62
     0.143     0.302   0.208276E-66
     0.143     0.317   0.274011E-70
     0.143     0.333   0.338293E-74
     0.143     0.349   0.392855E-78
     0.143     0.365   0.430036E-82
     0.143     0.381   0.444571E-86
     0.143     0.397   0.434800E-90
     0.143     0.413   0.402932E-94
     0.143     0.429   0.354314E-98
     0.143     0.444   0.296023-102
     0.143     0.460   0.235266-106
     0.143     0.476   0.178058-110
     0.143     0.492   0.128460-114
     0.143     0.508   0.884246-119
     0.143     0.524   0.581220-123
     0.143     0.540   0.365094-127
     0.143     0.556   0.219316-131
     0.143     0.571   0.126071-135
     0.143     0.587   0.693895-140
     0.143     0.603   0.365882-144
     0.143     0.619   0.184913-148
     0.143     0.635   0.896112-153
     0.143     0.651   0.416583-157
     0.143     0.667   0.185839-161
     0.143     0.683   0.795809-166
     0.143     0.698   0.327218-170
     0.143     0.714   0.129220-174
     0.143     0.730   0.490199-179
     0.143     0.746   0.178668-183
     0.143     0.762   0.625765-188
     0.143     0.778   0.210627-192
     0.143     0.794   0.681382-197
     0.143     0.810   0.211865-201
     0.143     0.825   0.633181-206
     0.143     0.841   0.181882-210
     0.143     0.857   0.502139-215
     0.143     0.873   0.133228-219
     0.143     0.889   0.339673-224
     0.143     0.905   0.832059-229
     0.143     0.921   0.195795-233
     0.143     0.937   0.442497-238
     0.143     0.952   0.960232-243
     0.143     0.968   0.200022-247
     0.143     0.984   0.399831-252
     0.143     1.000    0.00000    
     0.159     0.000    0.00000    
     0.159     0.016   0.144895E-04
     0.159     0.032   0.441693E-07
     0.159     0.048   0.666490E-10
     0.159     0.063   0.663693E-13
     0.159     0.079   0.490623E-16
     0.159     0.095   0.287156E-19
     0.159     0.111   0.138599E-22
     0.159     0.127   0.567358E-26
     0.159     0.143   0.201057E-29
     0.159     0.159   0.626517E-33
     0.159     0.175   0.173797E-36
     0.159     0.190   0.433473E-40
     0.159     0.206   0.980030E-44
     0.159     0.222   0.202231E-47
     0.159     0.238   0.383096E-51
     0.159     0.254   0.669551E-55
     0.159     0.270   0.108430E-58
     0.159     0.286   0.163324E-62
     0.159     0.302   0.229575E-66
     0.159     0.317   0.302033E-70
     0.159     0.333   0.372887E-74
     0.159     0.349   0.433029E-78
     0.159     0.365   0.474013E-82
     0.159     0.381   0.490034E-86
     0.159     0.397   0.479263E-90
     0.159     0.413   0.444137E-94
     0.159     0.429   0.390547E-98
     0.159     0.444   0.326295-102
     0.159     0.460   0.259325-106
     0.159     0.476   0.196267-110
     0.159     0.492   0.141597-114
     0.159     0.508   0.974671-119
     0.159     0.524   0.640658-123
     0.159     0.540   0.402430-127
     0.159     0.556   0.241743-131
     0.159     0.571   0.138963-135
     0.159     0.587   0.764855-140
     0.159     0.603   0.403298-144
     0.159     0.619   0.203822-148
     0.159     0.635   0.987751-153
     0.159     0.651   0.459184-157
     0.159     0.667   0.204844-161
     0.159     0.683   0.877191-166
     0.159     0.698   0.360680-170
     0.159     0.714   0.142434-174
     0.159     0.730   0.540328-179
     0.159     0.746   0.196939-183
     0.159     0.762   0.689757-188
     0.159     0.778   0.232167-192
     0.159     0.794   0.751062-197
     0.159     0.810   0.233531-201
     0.159     0.825   0.697932-206
     0.159     0.841   0.200482-210
     0.159     0.857   0.553489-215
     0.159     0.873   0.146853-219
     0.159     0.889   0.374409-224
     0.159     0.905   0.917148-229
     0.159     0.921   0.215817-233
     0.159     0.937   0.487748-238
     0.159     0.952   0.105843-242
     0.159     0.968   0.220477-247
     0.159     0.984   0.440719-252
     0.159     1.000    0.00000    
     0.175     0.000    0.00000    
     0.175     0.016   0.157977E-04
     0.175     0.032   0.481573E-07
     0.175     0.048   0.726667E-10
     0.175     0.063   0.723617E-13
     0.175     0.079   0.534921E-16
     0.175     0.095   0.313083E-19
     0.175     0.111   0.151112E-22
     0.175     0.127   0.618584E-26
     0.175     0.143   0.219210E-29
     0.175     0.159   0.683085E-33
     0.175     0.175   0.189489E-36
     0.175     0.190   0.472611E-40
     0.175     0.206   0.106852E-43
     0.175     0.222   0.220490E-47
     0.175     0.238   0.417685E-51
     0.175     0.254   0.730004E-55
     0.175     0.270   0.118221E-58
     0.175     0.286   0.178071E-62
     0.175     0.302   0.250303E-66
     0.175     0.317   0.329303E-70
     0.175     0.333   0.406555E-74
     0.175     0.349   0.472127E-78
     0.175     0.365   0.516811E-82
     0.175     0.381   0.534279E-86
     0.175     0.397   0.522536E-90
     0.175     0.413   0.484237E-94
     0.175     0.429   0.425809E-98
     0.175     0.444   0.355756-102
     0.175     0.460   0.282739-106
     0.175     0.476   0.213988-110
     0.175     0.492   0.154381-114
     0.175     0.508   0.106267-118
     0.175     0.524   0.698502-123
     0.175     0.540   0.438765-127
     0.175     0.556   0.263570-131
     0.175     0.571   0.151510-135
     0.175     0.587   0.833913-140
     0.175     0.603   0.439711-144
     0.175     0.619   0.222225-148
     0.175     0.635   0.107693-152
     0.175     0.651   0.500643-157
     0.175     0.667   0.223339-161
     0.175     0.683   0.956392-166
     0.175     0.698   0.393246-170
     0.175     0.714   0.155294-174
     0.175     0.730   0.589114-179
     0.175     0.746   0.214720-183
     0.175     0.762   0.752035-188
     0.175     0.778   0.253129-192
     0.175     0.794   0.818875-197
     0.175     0.810   0.254616-201
     0.175     0.825   0.760948-206
     0.175     0.841   0.218583-210
     0.175     0.857   0.603463-215
     0.175     0.873   0.160112-219
     0.175     0.889   0.408214-224
     0.175     0.905   0.999956-229
     0.175     0.921   0.235303-233
     0.175     0.937   0.531786-238
     0.175     0.952   0.115399-242
     0.175     0.968   0.240383-247
     0.175     0.984   0.480511-252
     0.175     1.000    0.00000    
     0.190     0.000    0.00000    
     0.190     0.016   0.170667E-04
     0.190     0.032   0.520255E-07
     0.190     0.048   0.785037E-10
     0.190     0.063   0.781743E-13
     0.190     0.079   0.577889E-16
     0.190     0.095   0.338232E-19
     0.190     0.111   0.163251E-22
     0.190     0.127   0.668273E-26
     0.190     0.143   0.236818E-29
     0.190     0.159   0.737955E-33
     0.190     0.175   0.204710E-36
     0.190     0.190   0.510574E-40
     0.190     0.206   0.115435E-43
     0.190     0.222   0.238201E-47
     0.190     0.238   0.451236E-51
     0.190     0.254   0.788642E-55
     0.190     0.270   0.127717E-58
     0.190     0.286   0.192374E-62
     0.190     0.302   0.270409E-66
     0.190     0.317   0.355755E-70
     0.190     0.333   0.439212E-74
     0.190     0.349   0.510051E-78
     0.190     0.365   0.558325E-82
     0.190     0.381   0.577195E-86
     0.190     0.397   0.564509E-90
     0.190     0.413   0.523134E-94
     0.190     0.429   0.460013E-98
     0.190     0.444   0.384332-102
     0.190     0.460   0.305450-106
     0.190     0.476   0.231177-110
     0.190     0.492   0.166782-114
     0.190     0.508   0.114803-118
     0.190     0.524   0.754610-123
     0.190     0.540   0.474009-127
     0.190     0.556   0.284742-131
     0.190     0.571   0.163680-135
     0.190     0.587   0.900898-140
     0.190     0.603   0.475032-144
     0.190     0.619   0.240076-148
     0.190     0.635   0.116344-152
     0.190     0.651   0.540858-157
     0.190     0.667   0.241279-161
     0.190     0.683   0.103322-165
     0.190     0.698   0.424834-170
     0.190     0.714   0.167768-174
     0.190     0.730   0.636435-179
     0.190     0.746   0.231968-183
     0.190     0.762   0.812443-188
     0.190     0.778   0.273462-192
     0.190     0.794   0.884652-197
     0.190     0.810   0.275069-201
     0.190     0.825   0.822072-206
     0.190     0.841   0.236141-210
     0.190     0.857   0.651937-215
     0.190     0.873   0.172973-219
     0.190     0.889   0.441004-224
     0.190     0.905   0.108028-228
     0.190     0.921   0.254204-233
     0.190     0.937   0.574502-238
     0.190     0.952   0.124669-242
     0.190     0.968   0.259692-247
     0.190     0.984   0.519109-252