Title="Temperature Data"
Variables="X","Y","T"
 
Zone I=   128, J=   128, F=POINT
     0.000     0.000    0.00000    
     0.000     0.008    0.00000    
     0.000     0.016    0.00000    
     0.000     0.024    0.00000    
     0.000     0.031    0.00000    
     0.000     0.039    0.00000    
     0.000     0.047    0.00000    
     0.000     0.055    0.00000    
     0.000     0.063    0.00000    
     0.000     0.071    0.00000    
     0.000     0.079    0.00000    
     0.000     0.087    0.00000    
     0.000     0.094    0.00000    
     0.000     0.102    0.00000    
     0.000     0.110    0.00000    
     0.000     0.118    0.00000    
     0.000     0.126    0.00000    
     0.000     0.134    0.00000    
     0.000     0.142    0.00000    
     0.000     0.150    0.00000    
     0.000     0.157    0.00000    
     0.000     0.165    0.00000    
     0.000     0.173    0.00000    
     0.000     0.181    0.00000    
     0.000     0.189    0.00000    
     0.000     0.197    0.00000    
     0.000     0.205    0.00000    
     0.000     0.213    0.00000    
     0.000     0.220    0.00000    
     0.000     0.228    0.00000    
     0.000     0.236    0.00000    
     0.000     0.244    0.00000    
     0.000     0.252    0.00000    
     0.000     0.260    0.00000    
     0.000     0.268    0.00000    
     0.000     0.276    0.00000    
     0.000     0.283    0.00000    
     0.000     0.291    0.00000    
     0.000     0.299    0.00000    
     0.000     0.307    0.00000    
     0.000     0.315    0.00000    
     0.000     0.323    0.00000    
     0.000     0.331    0.00000    
     0.000     0.339    0.00000    
     0.000     0.346    0.00000    
     0.000     0.354    0.00000    
     0.000     0.362    0.00000    
     0.000     0.370    0.00000    
     0.000     0.378    0.00000    
     0.000     0.386    0.00000    
     0.000     0.394    0.00000    
     0.000     0.402    0.00000    
     0.000     0.409    0.00000    
     0.000     0.417    0.00000    
     0.000     0.425    0.00000    
     0.000     0.433    0.00000    
     0.000     0.441    0.00000    
     0.000     0.449    0.00000    
     0.000     0.457    0.00000    
     0.000     0.465    0.00000    
     0.000     0.472    0.00000    
     0.000     0.480    0.00000    
     0.000     0.488    0.00000    
     0.000     0.496    0.00000    
     0.000     0.504    0.00000    
     0.000     0.512    0.00000    
     0.000     0.520    0.00000    
     0.000     0.528    0.00000    
     0.000     0.535    0.00000    
     0.000     0.543    0.00000    
     0.000     0.551    0.00000    
     0.000     0.559    0.00000    
     0.000     0.567    0.00000    
     0.000     0.575    0.00000    
     0.000     0.583    0.00000    
     0.000     0.591    0.00000    
     0.000     0.598    0.00000    
     0.000     0.606    0.00000    
     0.000     0.614    0.00000    
     0.000     0.622    0.00000    
     0.000     0.630    0.00000    
     0.000     0.638    0.00000    
     0.000     0.646    0.00000    
     0.000     0.654    0.00000    
     0.000     0.661    0.00000    
     0.000     0.669    0.00000    
     0.000     0.677    0.00000    
     0.000     0.685    0.00000    
     0.000     0.693    0.00000    
     0.000     0.701    0.00000    
     0.000     0.709    0.00000    
     0.000     0.717    0.00000    
     0.000     0.724    0.00000    
     0.000     0.732    0.00000    
     0.000     0.740    0.00000    
     0.000     0.748    0.00000    
     0.000     0.756    0.00000    
     0.000     0.764    0.00000    
     0.000     0.772    0.00000    
     0.000     0.780    0.00000    
     0.000     0.787    0.00000    
     0.000     0.795    0.00000    
     0.000     0.803    0.00000    
     0.000     0.811    0.00000    
     0.000     0.819    0.00000    
     0.000     0.827    0.00000    
     0.000     0.835    0.00000    
     0.000     0.843    0.00000    
     0.000     0.850    0.00000    
     0.000     0.858    0.00000    
     0.000     0.866    0.00000    
     0.000     0.874    0.00000    
     0.000     0.882    0.00000    
     0.000     0.890    0.00000    
     0.000     0.898    0.00000    
     0.000     0.906    0.00000    
     0.000     0.913    0.00000    
     0.000     0.921    0.00000    
     0.000     0.929    0.00000    
     0.000     0.937    0.00000    
     0.000     0.945    0.00000    
     0.000     0.953    0.00000    
     0.000     0.961    0.00000    
     0.000     0.969    0.00000    
     0.000     0.976    0.00000    
     0.000     0.984    0.00000    
     0.000     0.992    0.00000    
     0.000     1.000    0.00000    
     0.008     0.000   0.247344E-01
     0.008     0.008   0.236911E-01
     0.008     0.016   0.226645E-01
     0.008     0.024   0.216544E-01
     0.008     0.031   0.206641E-01
     0.008     0.039   0.196918E-01
     0.008     0.047   0.187420E-01
     0.008     0.055   0.178116E-01
     0.008     0.063   0.169065E-01
     0.008     0.071   0.160220E-01
     0.008     0.079   0.151651E-01
     0.008     0.087   0.143297E-01
     0.008     0.094   0.135240E-01
     0.008     0.102   0.127406E-01
     0.008     0.110   0.119883E-01
     0.008     0.118   0.112589E-01
     0.008     0.126   0.105617E-01
     0.008     0.134   0.988754E-02
     0.008     0.142   0.924625E-02
     0.008     0.150   0.862784E-02
     0.008     0.157   0.804243E-02
     0.008     0.165   0.747955E-02
     0.008     0.173   0.694931E-02
     0.008     0.181   0.644099E-02
     0.008     0.189   0.596450E-02
     0.008     0.197   0.550908E-02
     0.008     0.205   0.508432E-02
     0.008     0.213   0.467958E-02
     0.008     0.220   0.430399E-02
     0.008     0.228   0.394720E-02
     0.008     0.236   0.361780E-02
     0.008     0.244   0.330585E-02
     0.008     0.252   0.301933E-02
     0.008     0.260   0.274884E-02
     0.008     0.268   0.250168E-02
     0.008     0.276   0.226909E-02
     0.008     0.283   0.205765E-02
     0.008     0.291   0.185931E-02
     0.008     0.299   0.167996E-02
     0.008     0.307   0.151225E-02
     0.008     0.315   0.136138E-02
     0.008     0.323   0.122077E-02
     0.008     0.331   0.109493E-02
     0.008     0.339   0.978032E-03
     0.008     0.346   0.873969E-03
     0.008     0.354   0.777605E-03
     0.008     0.362   0.692276E-03
     0.008     0.370   0.613516E-03
     0.008     0.378   0.544144E-03
     0.008     0.386   0.480322E-03
     0.008     0.394   0.424404E-03
     0.008     0.402   0.373127E-03
     0.008     0.409   0.328439E-03
     0.008     0.417   0.287595E-03
     0.008     0.425   0.252187E-03
     0.008     0.433   0.219931E-03
     0.008     0.441   0.192116E-03
     0.008     0.449   0.166861E-03
     0.008     0.457   0.145200E-03
     0.008     0.465   0.125596E-03
     0.008     0.472   0.108870E-03
     0.008     0.480   0.937838E-04
     0.008     0.488   0.809811E-04
     0.008     0.496   0.694709E-04
     0.008     0.504   0.597550E-04
     0.008     0.512   0.510489E-04
     0.008     0.520   0.437391E-04
     0.008     0.528   0.372106E-04
     0.008     0.535   0.317584E-04
     0.008     0.543   0.269051E-04
     0.008     0.551   0.228734E-04
     0.008     0.559   0.192965E-04
     0.008     0.567   0.163409E-04
     0.008     0.575   0.137274E-04
     0.008     0.583   0.115794E-04
     0.008     0.591   0.968631E-05
     0.008     0.598   0.813869E-05
     0.008     0.606   0.677920E-05
     0.008     0.614   0.567375E-05
     0.008     0.622   0.470589E-05
     0.008     0.630   0.392308E-05
     0.008     0.638   0.323997E-05
     0.008     0.646   0.269041E-05
     0.008     0.654   0.221244E-05
     0.008     0.661   0.182995E-05
     0.008     0.669   0.149839E-05
     0.008     0.677   0.123448E-05
     0.008     0.685   0.100646E-05
     0.008     0.693   0.825935E-06
     0.008     0.701   0.670477E-06
     0.008     0.709   0.548052E-06
     0.008     0.717   0.442975E-06
     0.008     0.724   0.360667E-06
     0.008     0.732   0.290255E-06
     0.008     0.740   0.235394E-06
     0.008     0.748   0.188617E-06
     0.008     0.756   0.152365E-06
     0.008     0.764   0.121557E-06
     0.008     0.772   0.978080E-07
     0.008     0.780   0.776919E-07
     0.008     0.787   0.622670E-07
     0.008     0.795   0.492449E-07
     0.008     0.803   0.393127E-07
     0.008     0.811   0.309554E-07
     0.008     0.819   0.246149E-07
     0.008     0.827   0.192973E-07
     0.008     0.835   0.152844E-07
     0.008     0.843   0.119300E-07
     0.008     0.850   0.941200E-08
     0.008     0.858   0.731409E-08
     0.008     0.866   0.574760E-08
     0.008     0.874   0.444671E-08
     0.008     0.882   0.348043E-08
     0.008     0.890   0.268057E-08
     0.008     0.898   0.208948E-08
     0.008     0.906   0.160168E-08
     0.008     0.913   0.124290E-08
     0.008     0.921   0.947591E-09
     0.008     0.929   0.731141E-09
     0.008     0.937   0.553224E-09
     0.008     0.945   0.422798E-09
     0.008     0.953   0.315318E-09
     0.008     0.961   0.235685E-09
     0.008     0.969   0.169177E-09
     0.008     0.976   0.117969E-09
     0.008     0.984   0.734614E-10
     0.008     0.992   0.357053E-10
     0.008     1.000    0.00000    
     0.016     0.000   0.494537E-01
     0.016     0.008   0.473682E-01
     0.016     0.016   0.453143E-01
     0.016     0.024   0.432968E-01
     0.016     0.031   0.413140E-01
     0.016     0.039   0.393734E-01
     0.016     0.047   0.374703E-01
     0.016     0.055   0.356150E-01
     0.016     0.063   0.337997E-01
     0.016     0.071   0.320375E-01
     0.016     0.079   0.303173E-01
     0.016     0.087   0.286545E-01
     0.016     0.094   0.270356E-01
     0.016     0.102   0.254777E-01
     0.016     0.110   0.239648E-01
     0.016     0.118   0.225156E-01
     0.016     0.126   0.211122E-01
     0.016     0.134   0.197740E-01
     0.016     0.142   0.184818E-01
     0.016     0.150   0.172555E-01
     0.016     0.157   0.160748E-01
     0.016     0.165   0.149597E-01
     0.016     0.173   0.138892E-01
     0.016     0.181   0.128832E-01
     0.016     0.189   0.119202E-01
     0.016     0.197   0.110198E-01
     0.016     0.205   0.101606E-01
     0.016     0.213   0.936116E-02
     0.016     0.220   0.860059E-02
     0.016     0.228   0.789661E-02
     0.016     0.236   0.722889E-02
     0.016     0.244   0.661401E-02
     0.016     0.252   0.603263E-02
     0.016     0.260   0.550001E-02
     0.016     0.268   0.499799E-02
     0.016     0.276   0.454044E-02
     0.016     0.283   0.411056E-02
     0.016     0.291   0.372080E-02
     0.016     0.299   0.335576E-02
     0.016     0.307   0.302652E-02
     0.016     0.315   0.271916E-02
     0.016     0.323   0.244339E-02
     0.016     0.331   0.218677E-02
     0.016     0.339   0.195773E-02
     0.016     0.346   0.174530E-02
     0.016     0.354   0.155669E-02
     0.016     0.362   0.138232E-02
     0.016     0.370   0.122833E-02
     0.016     0.378   0.108642E-02
     0.016     0.386   0.961759E-03
     0.016     0.394   0.847258E-03
     0.016     0.402   0.747204E-03
     0.016     0.409   0.655605E-03
     0.016     0.417   0.575987E-03
     0.016     0.425   0.503337E-03
     0.016     0.433   0.440524E-03
     0.016     0.441   0.383397E-03
     0.016     0.449   0.334267E-03
     0.016     0.457   0.289731E-03
     0.016     0.465   0.251633E-03
     0.016     0.472   0.217211E-03
     0.016     0.480   0.187922E-03
     0.016     0.488   0.161547E-03
     0.016     0.496   0.139223E-03
     0.016     0.504   0.119187E-03
     0.016     0.512   0.102319E-03
     0.016     0.520   0.872293E-04
     0.016     0.528   0.745934E-04
     0.016     0.535   0.633268E-04
     0.016     0.543   0.539426E-04
     0.016     0.551   0.456031E-04
     0.016     0.559   0.386939E-04
     0.016     0.567   0.325741E-04
     0.016     0.575   0.275310E-04
     0.016     0.583   0.230788E-04
     0.016     0.591   0.194295E-04
     0.016     0.598   0.162185E-04
     0.016     0.606   0.136005E-04
     0.016     0.614   0.113045E-04
     0.016     0.622   0.944258E-05
     0.016     0.630   0.781510E-05
     0.016     0.638   0.650229E-05
     0.016     0.646   0.535858E-05
     0.016     0.654   0.444092E-05
     0.016     0.661   0.364412E-05
     0.016     0.669   0.300820E-05
     0.016     0.677   0.245786E-05
     0.016     0.685   0.202097E-05
     0.016     0.693   0.164413E-05
     0.016     0.701   0.134657E-05
     0.016     0.709   0.109076E-05
     0.016     0.717   0.889836E-06
     0.016     0.724   0.717673E-06
     0.016     0.732   0.583173E-06
     0.016     0.740   0.468304E-06
     0.016     0.748   0.379042E-06
     0.016     0.756   0.303060E-06
     0.016     0.764   0.244330E-06
     0.016     0.772   0.194503E-06
     0.016     0.780   0.156194E-06
     0.016     0.787   0.123799E-06
     0.016     0.795   0.990247E-07
     0.016     0.803   0.781444E-07
     0.016     0.811   0.622607E-07
     0.016     0.819   0.489177E-07
     0.016     0.827   0.388215E-07
     0.016     0.835   0.303682E-07
     0.016     0.843   0.240058E-07
     0.016     0.850   0.186961E-07
     0.016     0.858   0.147210E-07
     0.016     0.866   0.114144E-07
     0.016     0.874   0.895194E-08
     0.016     0.882   0.691030E-08
     0.016     0.890   0.539772E-08
     0.016     0.898   0.414759E-08
     0.016     0.906   0.322600E-08
     0.016     0.913   0.246654E-08
     0.016     0.921   0.190904E-08
     0.016     0.929   0.145060E-08
     0.016     0.937   0.111481E-08
     0.016     0.945   0.838646E-09
     0.016     0.953   0.635542E-09
     0.016     0.961   0.467396E-09
     0.016     0.969   0.341053E-09
     0.016     0.976   0.233909E-09
     0.016     0.984   0.148114E-09
     0.016     0.992   0.707903E-10
     0.016     1.000    0.00000    
     0.024     0.000   0.741428E-01
     0.024     0.008   0.710154E-01
     0.024     0.016   0.679380E-01
     0.024     0.024   0.649103E-01
     0.024     0.031   0.619417E-01
     0.024     0.039   0.590271E-01
     0.024     0.047   0.561802E-01
     0.024     0.055   0.533913E-01
     0.024     0.063   0.506782E-01
     0.024     0.071   0.480267E-01
     0.024     0.079   0.454581E-01
     0.024     0.087   0.429541E-01
     0.024     0.094   0.405389E-01
     0.024     0.102   0.381905E-01
     0.024     0.110   0.359357E-01
     0.024     0.118   0.337491E-01
     0.024     0.126   0.316594E-01
     0.024     0.134   0.296384E-01
     0.024     0.142   0.277161E-01
     0.024     0.150   0.258624E-01
     0.024     0.157   0.241076E-01
     0.024     0.165   0.224204E-01
     0.024     0.173   0.208309E-01
     0.024     0.181   0.193072E-01
     0.024     0.189   0.178789E-01
     0.024     0.197   0.165138E-01
     0.024     0.205   0.152405E-01
     0.024     0.213   0.140273E-01
     0.024     0.220   0.129014E-01
     0.024     0.228   0.118319E-01
     0.024     0.236   0.108445E-01
     0.024     0.244   0.990946E-02
     0.024     0.252   0.905059E-02
     0.024     0.260   0.823979E-02
     0.024     0.268   0.749891E-02
     0.024     0.276   0.680170E-02
     0.024     0.283   0.616792E-02
     0.024     0.291   0.557339E-02
     0.024     0.299   0.503576E-02
     0.024     0.307   0.453305E-02
     0.024     0.315   0.408081E-02
     0.024     0.323   0.365931E-02
     0.024     0.331   0.328212E-02
     0.024     0.339   0.293170E-02
     0.024     0.346   0.261977E-02
     0.024     0.354   0.233091E-02
     0.024     0.362   0.207513E-02
     0.024     0.370   0.183905E-02
     0.024     0.378   0.163110E-02
     0.024     0.386   0.143979E-02
     0.024     0.394   0.127217E-02
     0.024     0.402   0.111847E-02
     0.024     0.409   0.984514E-03
     0.024     0.417   0.862081E-03
     0.024     0.425   0.755943E-03
     0.024     0.433   0.659254E-03
     0.024     0.441   0.575879E-03
     0.024     0.449   0.500176E-03
     0.024     0.457   0.435243E-03
     0.024     0.465   0.376480E-03
     0.024     0.472   0.326345E-03
     0.024     0.480   0.281122E-03
     0.024     0.488   0.242745E-03
     0.024     0.496   0.208243E-03
     0.024     0.504   0.179119E-03
     0.024     0.512   0.153022E-03
     0.024     0.520   0.131110E-03
     0.024     0.528   0.111541E-03
     0.024     0.535   0.951975E-04
     0.024     0.543   0.806494E-04
     0.024     0.551   0.685643E-04
     0.024     0.559   0.578422E-04
     0.024     0.567   0.489828E-04
     0.024     0.575   0.411487E-04
     0.024     0.583   0.347100E-04
     0.024     0.591   0.290352E-04
     0.024     0.598   0.243961E-04
     0.024     0.606   0.203210E-04
     0.024     0.614   0.170074E-04
     0.024     0.622   0.141062E-04
     0.024     0.630   0.117596E-04
     0.024     0.638   0.971199E-05
     0.024     0.646   0.806466E-05
     0.024     0.654   0.663190E-05
     0.024     0.661   0.548538E-05
     0.024     0.669   0.449150E-05
     0.024     0.677   0.370042E-05
     0.024     0.685   0.301692E-05
     0.024     0.693   0.247579E-05
     0.024     0.701   0.200979E-05
     0.024     0.709   0.164281E-05
     0.024     0.717   0.132784E-05
     0.024     0.724   0.108112E-05
     0.024     0.732   0.870055E-06
     0.024     0.740   0.705606E-06
     0.024     0.748   0.565391E-06
     0.024     0.756   0.456723E-06
     0.024     0.764   0.364375E-06
     0.024     0.772   0.293185E-06
     0.024     0.780   0.232886E-06
     0.024     0.787   0.186648E-06
     0.024     0.795   0.147614E-06
     0.024     0.803   0.117842E-06
     0.024     0.811   0.927904E-07
     0.024     0.819   0.737845E-07
     0.024     0.827   0.578448E-07
     0.024     0.835   0.458159E-07
     0.024     0.843   0.357608E-07
     0.024     0.850   0.282130E-07
     0.024     0.858   0.219244E-07
     0.024     0.866   0.172287E-07
     0.024     0.874   0.133292E-07
     0.024     0.882   0.104328E-07
     0.024     0.890   0.803515E-08
     0.024     0.898   0.626332E-08
     0.024     0.906   0.480113E-08
     0.024     0.913   0.372565E-08
     0.024     0.921   0.284045E-08
     0.024     0.929   0.219163E-08
     0.024     0.937   0.165832E-08
     0.024     0.945   0.126736E-08
     0.024     0.953   0.945181E-09
     0.024     0.961   0.706477E-09
     0.024     0.969   0.507118E-09
     0.024     0.976   0.353617E-09
     0.024     0.984   0.220204E-09
     0.024     0.992   0.107029E-09
     0.024     1.000    0.00000    
     0.031     0.000   0.987864E-01
     0.031     0.008   0.946204E-01
     0.031     0.016   0.905177E-01
     0.031     0.024   0.864877E-01
     0.031     0.031   0.825268E-01
     0.031     0.039   0.786505E-01
     0.031     0.047   0.748488E-01
     0.031     0.055   0.711429E-01
     0.031     0.063   0.675168E-01
     0.031     0.071   0.639965E-01
     0.031     0.079   0.605604E-01
     0.031     0.087   0.572389E-01
     0.031     0.094   0.540051E-01
     0.031     0.102   0.508930E-01
     0.031     0.110   0.478710E-01
     0.031     0.118   0.449761E-01
     0.031     0.126   0.421726E-01
     0.031     0.134   0.394996E-01
     0.031     0.142   0.369183E-01
     0.031     0.150   0.344688E-01
     0.031     0.157   0.321102E-01
     0.031     0.165   0.298828E-01
     0.031     0.173   0.277444E-01
     0.031     0.181   0.257349E-01
     0.031     0.189   0.238113E-01
     0.031     0.197   0.220127E-01
     0.031     0.205   0.202963E-01
     0.031     0.213   0.186994E-01
     0.031     0.220   0.171801E-01
     0.031     0.228   0.157739E-01
     0.031     0.236   0.144401E-01
     0.031     0.244   0.132118E-01
     0.031     0.252   0.120505E-01
     0.031     0.260   0.109866E-01
     0.031     0.268   0.998374E-02
     0.031     0.276   0.906978E-02
     0.031     0.283   0.821106E-02
     0.031     0.291   0.743249E-02
     0.031     0.299   0.670331E-02
     0.031     0.307   0.604563E-02
     0.031     0.315   0.543166E-02
     0.031     0.323   0.488079E-02
     0.031     0.331   0.436819E-02
     0.031     0.339   0.391067E-02
     0.031     0.346   0.348632E-02
     0.031     0.354   0.310957E-02
     0.031     0.362   0.276126E-02
     0.031     0.370   0.245365E-02
     0.031     0.378   0.217018E-02
     0.031     0.386   0.192116E-02
     0.031     0.394   0.169244E-02
     0.031     0.402   0.149258E-02
     0.031     0.409   0.130961E-02
     0.031     0.417   0.115057E-02
     0.031     0.425   0.100544E-02
     0.031     0.433   0.879970E-03
     0.031     0.441   0.765855E-03
     0.031     0.449   0.667715E-03
     0.031     0.457   0.578752E-03
     0.031     0.465   0.502650E-03
     0.031     0.472   0.433891E-03
     0.031     0.480   0.375385E-03
     0.031     0.488   0.322698E-03
     0.031     0.496   0.278106E-03
     0.031     0.504   0.238082E-03
     0.031     0.512   0.204388E-03
     0.031     0.520   0.174245E-03
     0.031     0.528   0.149004E-03
     0.031     0.535   0.126499E-03
     0.031     0.543   0.107753E-03
     0.031     0.551   0.910946E-04
     0.031     0.559   0.772931E-04
     0.031     0.567   0.650685E-04
     0.031     0.575   0.549946E-04
     0.031     0.583   0.461012E-04
     0.031     0.591   0.388114E-04
     0.031     0.598   0.323972E-04
     0.031     0.606   0.271676E-04
     0.031     0.614   0.225814E-04
     0.031     0.622   0.188621E-04
     0.031     0.630   0.156111E-04
     0.031     0.638   0.129887E-04
     0.031     0.646   0.107041E-04
     0.031     0.654   0.887098E-05
     0.031     0.661   0.727932E-05
     0.031     0.669   0.600903E-05
     0.031     0.677   0.490970E-05
     0.031     0.685   0.403700E-05
     0.031     0.693   0.328424E-05
     0.031     0.701   0.268985E-05
     0.031     0.709   0.217884E-05
     0.031     0.717   0.177749E-05
     0.031     0.724   0.143359E-05
     0.031     0.732   0.116492E-05
     0.031     0.740   0.935463E-06
     0.031     0.748   0.757157E-06
     0.031     0.756   0.605379E-06
     0.031     0.764   0.488063E-06
     0.031     0.772   0.388530E-06
     0.031     0.780   0.312005E-06
     0.031     0.787   0.247295E-06
     0.031     0.795   0.197807E-06
     0.031     0.803   0.156097E-06
     0.031     0.811   0.124369E-06
     0.031     0.819   0.977157E-07
     0.031     0.827   0.775481E-07
     0.031     0.835   0.606620E-07
     0.031     0.843   0.479528E-07
     0.031     0.850   0.373465E-07
     0.031     0.858   0.294059E-07
     0.031     0.866   0.228009E-07
     0.031     0.874   0.178820E-07
     0.031     0.882   0.138037E-07
     0.031     0.890   0.107822E-07
     0.031     0.898   0.828504E-08
     0.031     0.906   0.644411E-08
     0.031     0.913   0.492704E-08
     0.031     0.921   0.381341E-08
     0.031     0.929   0.289766E-08
     0.031     0.937   0.222688E-08
     0.031     0.945   0.167524E-08
     0.031     0.953   0.126953E-08
     0.031     0.961   0.933649E-09
     0.031     0.969   0.681271E-09
     0.031     0.976   0.467247E-09
     0.031     0.984   0.295866E-09
     0.031     0.992   0.141407E-09
     0.031     1.000    0.00000    
     0.039     0.000   0.123370    
     0.039     0.008   0.118166    
     0.039     0.016   0.113045    
     0.039     0.024   0.108007    
     0.039     0.031   0.103068    
     0.039     0.039   0.982180E-01
     0.039     0.047   0.934809E-01
     0.039     0.055   0.888403E-01
     0.039     0.063   0.843259E-01
     0.039     0.071   0.799140E-01
     0.039     0.079   0.756400E-01
     0.039     0.087   0.714733E-01
     0.039     0.094   0.674546E-01
     0.039     0.102   0.635470E-01
     0.039     0.110   0.597951E-01
     0.039     0.118   0.561567E-01
     0.039     0.126   0.526795E-01
     0.039     0.134   0.493168E-01
     0.039     0.142   0.461182E-01
     0.039     0.150   0.430337E-01
     0.039     0.157   0.401138E-01
     0.039     0.165   0.373063E-01
     0.039     0.173   0.346616E-01
     0.039     0.181   0.321262E-01
     0.039     0.189   0.297496E-01
     0.039     0.197   0.274780E-01
     0.039     0.205   0.253594E-01
     0.039     0.213   0.233407E-01
     0.039     0.220   0.214673E-01
     0.039     0.228   0.196877E-01
     0.039     0.236   0.180447E-01
     0.039     0.244   0.164888E-01
     0.039     0.252   0.150597E-01
     0.039     0.260   0.137106E-01
     0.039     0.268   0.124778E-01
     0.039     0.276   0.113177E-01
     0.039     0.283   0.102631E-01
     0.039     0.291   0.927383E-02
     0.039     0.299   0.837924E-02
     0.039     0.307   0.754275E-02
     0.039     0.315   0.679026E-02
     0.039     0.323   0.608891E-02
     0.039     0.331   0.546128E-02
     0.039     0.339   0.487820E-02
     0.039     0.346   0.435916E-02
     0.039     0.354   0.387851E-02
     0.039     0.362   0.345291E-02
     0.039     0.370   0.306008E-02
     0.039     0.378   0.271407E-02
     0.039     0.386   0.239574E-02
     0.039     0.394   0.211683E-02
     0.039     0.402   0.186107E-02
     0.039     0.409   0.163818E-02
     0.039     0.417   0.143446E-02
     0.039     0.425   0.125785E-02
     0.039     0.433   0.109696E-02
     0.039     0.441   0.958233E-03
     0.039     0.449   0.832266E-03
     0.039     0.457   0.724222E-03
     0.039     0.465   0.626442E-03
     0.039     0.472   0.543020E-03
     0.039     0.480   0.467772E-03
     0.039     0.488   0.403915E-03
     0.039     0.496   0.346505E-03
     0.039     0.504   0.298044E-03
     0.039     0.512   0.254620E-03
     0.039     0.520   0.218160E-03
     0.039     0.528   0.185598E-03
     0.039     0.535   0.158404E-03
     0.039     0.543   0.134196E-03
     0.039     0.551   0.114087E-03
     0.039     0.559   0.962464E-04
     0.039     0.567   0.815048E-04
     0.039     0.575   0.684692E-04
     0.039     0.583   0.577556E-04
     0.039     0.591   0.483131E-04
     0.039     0.598   0.405939E-04
     0.039     0.606   0.338131E-04
     0.039     0.614   0.282993E-04
     0.039     0.622   0.234719E-04
     0.039     0.630   0.195674E-04
     0.039     0.638   0.161602E-04
     0.039     0.646   0.134192E-04
     0.039     0.654   0.110351E-04
     0.039     0.661   0.912738E-05
     0.039     0.669   0.747363E-05
     0.039     0.677   0.615730E-05
     0.039     0.685   0.502000E-05
     0.039     0.693   0.411958E-05
     0.039     0.701   0.334418E-05
     0.039     0.709   0.273356E-05
     0.039     0.717   0.220946E-05
     0.039     0.724   0.179892E-05
     0.039     0.732   0.144773E-05
     0.039     0.740   0.117409E-05
     0.039     0.748   0.940781E-06
     0.039     0.756   0.759962E-06
     0.039     0.764   0.606301E-06
     0.039     0.772   0.487844E-06
     0.039     0.780   0.387509E-06
     0.039     0.787   0.310573E-06
     0.039     0.795   0.245622E-06
     0.039     0.803   0.196083E-06
     0.039     0.811   0.154398E-06
     0.039     0.819   0.122773E-06
     0.039     0.827   0.962507E-07
     0.039     0.835   0.762352E-07
     0.039     0.843   0.595042E-07
     0.039     0.850   0.469449E-07
     0.039     0.858   0.364810E-07
     0.039     0.866   0.286677E-07
     0.039     0.874   0.221792E-07
     0.039     0.882   0.173596E-07
     0.039     0.890   0.133701E-07
     0.039     0.898   0.104218E-07
     0.039     0.906   0.798882E-08
     0.039     0.913   0.619928E-08
     0.039     0.921   0.472636E-08
     0.039     0.929   0.364676E-08
     0.039     0.937   0.275935E-08
     0.039     0.945   0.210882E-08
     0.039     0.953   0.157273E-08
     0.039     0.961   0.117554E-08
     0.039     0.969   0.843817E-09
     0.039     0.976   0.588400E-09
     0.039     0.984   0.366409E-09
     0.039     0.992   0.178090E-09
     0.039     1.000    0.00000    
     0.047     0.000   0.147877    
     0.047     0.008   0.141641    
     0.047     0.016   0.135500    
     0.047     0.024   0.129467    
     0.047     0.031   0.123538    
     0.047     0.039   0.117735    
     0.047     0.047   0.112044    
     0.047     0.055   0.106497    
     0.047     0.063   0.101069    
     0.047     0.071   0.957990E-01
     0.047     0.079   0.906553E-01
     0.047     0.087   0.856833E-01
     0.047     0.094   0.808424E-01
     0.047     0.102   0.761838E-01
     0.047     0.110   0.716600E-01
     0.047     0.118   0.673265E-01
     0.047     0.126   0.631299E-01
     0.047     0.134   0.591286E-01
     0.047     0.142   0.552645E-01
     0.047     0.150   0.515978E-01
     0.047     0.157   0.480670E-01
     0.047     0.165   0.447328E-01
     0.047     0.173   0.415317E-01
     0.047     0.181   0.385236E-01
     0.047     0.189   0.356441E-01
     0.047     0.197   0.329517E-01
     0.047     0.205   0.303823E-01
     0.047     0.213   0.279919E-01
     0.047     0.220   0.257176E-01
     0.047     0.228   0.236126E-01
     0.047     0.236   0.216160E-01
     0.047     0.244   0.197773E-01
     0.047     0.252   0.180389E-01
     0.047     0.260   0.164462E-01
     0.047     0.268   0.149451E-01
     0.047     0.276   0.135769E-01
     0.047     0.283   0.122915E-01
     0.047     0.291   0.111260E-01
     0.047     0.299   0.100345E-01
     0.047     0.307   0.904995E-02
     0.047     0.315   0.813088E-02
     0.047     0.323   0.730625E-02
     0.047     0.331   0.653891E-02
     0.047     0.339   0.585405E-02
     0.047     0.346   0.521881E-02
     0.047     0.354   0.465484E-02
     0.047     0.362   0.413344E-02
     0.047     0.370   0.367296E-02
     0.047     0.378   0.324863E-02
     0.047     0.386   0.287587E-02
     0.047     0.394   0.253349E-02
     0.047     0.402   0.223430E-02
     0.047     0.409   0.196040E-02
     0.047     0.417   0.172233E-02
     0.047     0.425   0.150509E-02
     0.047     0.433   0.131726E-02
     0.047     0.441   0.114644E-02
     0.047     0.449   0.999530E-03
     0.047     0.457   0.866358E-03
     0.047     0.465   0.752437E-03
     0.047     0.472   0.649509E-03
     0.047     0.480   0.561928E-03
     0.047     0.488   0.483060E-03