Title="Temperature Data"
Variables="X","Y","T"
 
Zone I=   128, J=   128, F=POINT
     0.000     0.000    0.00000    
     0.000     0.008    0.00000    
     0.000     0.016    0.00000    
     0.000     0.024    0.00000    
     0.000     0.031    0.00000    
     0.000     0.039    0.00000    
     0.000     0.047    0.00000    
     0.000     0.055    0.00000    
     0.000     0.063    0.00000    
     0.000     0.071    0.00000    
     0.000     0.079    0.00000    
     0.000     0.087    0.00000    
     0.000     0.094    0.00000    
     0.000     0.102    0.00000    
     0.000     0.110    0.00000    
     0.000     0.118    0.00000    
     0.000     0.126    0.00000    
     0.000     0.134    0.00000    
     0.000     0.142    0.00000    
     0.000     0.150    0.00000    
     0.000     0.157    0.00000    
     0.000     0.165    0.00000    
     0.000     0.173    0.00000    
     0.000     0.181    0.00000    
     0.000     0.189    0.00000    
     0.000     0.197    0.00000    
     0.000     0.205    0.00000    
     0.000     0.213    0.00000    
     0.000     0.220    0.00000    
     0.000     0.228    0.00000    
     0.000     0.236    0.00000    
     0.000     0.244    0.00000    
     0.000     0.252    0.00000    
     0.000     0.260    0.00000    
     0.000     0.268    0.00000    
     0.000     0.276    0.00000    
     0.000     0.283    0.00000    
     0.000     0.291    0.00000    
     0.000     0.299    0.00000    
     0.000     0.307    0.00000    
     0.000     0.315    0.00000    
     0.000     0.323    0.00000    
     0.000     0.331    0.00000    
     0.000     0.339    0.00000    
     0.000     0.346    0.00000    
     0.000     0.354    0.00000    
     0.000     0.362    0.00000    
     0.000     0.370    0.00000    
     0.000     0.378    0.00000    
     0.000     0.386    0.00000    
     0.000     0.394    0.00000    
     0.000     0.402    0.00000    
     0.000     0.409    0.00000    
     0.000     0.417    0.00000    
     0.000     0.425    0.00000    
     0.000     0.433    0.00000    
     0.000     0.441    0.00000    
     0.000     0.449    0.00000    
     0.000     0.457    0.00000    
     0.000     0.465    0.00000    
     0.000     0.472    0.00000    
     0.000     0.480    0.00000    
     0.000     0.488    0.00000    
     0.000     0.496    0.00000    
     0.000     0.504    0.00000    
     0.000     0.512    0.00000    
     0.000     0.520    0.00000    
     0.000     0.528    0.00000    
     0.000     0.535    0.00000    
     0.000     0.543    0.00000    
     0.000     0.551    0.00000    
     0.000     0.559    0.00000    
     0.000     0.567    0.00000    
     0.000     0.575    0.00000    
     0.000     0.583    0.00000    
     0.000     0.591    0.00000    
     0.000     0.598    0.00000    
     0.000     0.606    0.00000    
     0.000     0.614    0.00000    
     0.000     0.622    0.00000    
     0.000     0.630    0.00000    
     0.000     0.638    0.00000    
     0.000     0.646    0.00000    
     0.000     0.654    0.00000    
     0.000     0.661    0.00000    
     0.000     0.669    0.00000    
     0.000     0.677    0.00000    
     0.000     0.685    0.00000    
     0.000     0.693    0.00000    
     0.000     0.701    0.00000    
     0.000     0.709    0.00000    
     0.000     0.717    0.00000    
     0.000     0.724    0.00000    
     0.000     0.732    0.00000    
     0.000     0.740    0.00000    
     0.000     0.748    0.00000    
     0.000     0.756    0.00000    
     0.000     0.764    0.00000    
     0.000     0.772    0.00000    
     0.000     0.780    0.00000    
     0.000     0.787    0.00000    
     0.000     0.795    0.00000    
     0.000     0.803    0.00000    
     0.000     0.811    0.00000    
     0.000     0.819    0.00000    
     0.000     0.827    0.00000    
     0.000     0.835    0.00000    
     0.000     0.843    0.00000    
     0.000     0.850    0.00000    
     0.000     0.858    0.00000    
     0.000     0.866    0.00000    
     0.000     0.874    0.00000    
     0.000     0.882    0.00000    
     0.000     0.890    0.00000    
     0.000     0.898    0.00000    
     0.000     0.906    0.00000    
     0.000     0.913    0.00000    
     0.000     0.921    0.00000    
     0.000     0.929    0.00000    
     0.000     0.937    0.00000    
     0.000     0.945    0.00000    
     0.000     0.953    0.00000    
     0.000     0.961    0.00000    
     0.000     0.969    0.00000    
     0.000     0.976    0.00000    
     0.000     0.984    0.00000    
     0.000     0.992    0.00000    
     0.000     1.000    0.00000    
     0.008     0.000   0.247344E-01
     0.008     0.008   0.241160E-01
     0.008     0.016   0.235124E-01
     0.008     0.024   0.229232E-01
     0.008     0.031   0.223480E-01
     0.008     0.039   0.217866E-01
     0.008     0.047   0.212386E-01
     0.008     0.055   0.207037E-01
     0.008     0.063   0.201815E-01
     0.008     0.071   0.196718E-01
     0.008     0.079   0.191743E-01
     0.008     0.087   0.186887E-01
     0.008     0.094   0.182146E-01
     0.008     0.102   0.177519E-01
     0.008     0.110   0.173002E-01
     0.008     0.118   0.168594E-01
     0.008     0.126   0.164290E-01
     0.008     0.134   0.160090E-01
     0.008     0.142   0.155990E-01
     0.008     0.150   0.151987E-01
     0.008     0.157   0.148081E-01
     0.008     0.165   0.144268E-01
     0.008     0.173   0.140546E-01
     0.008     0.181   0.136914E-01
     0.008     0.189   0.133368E-01
     0.008     0.197   0.129907E-01
     0.008     0.205   0.126530E-01
     0.008     0.213   0.123233E-01
     0.008     0.220   0.120016E-01
     0.008     0.228   0.116875E-01
     0.008     0.236   0.113810E-01
     0.008     0.244   0.110819E-01
     0.008     0.252   0.107900E-01
     0.008     0.260   0.105050E-01
     0.008     0.268   0.102270E-01
     0.008     0.276   0.995563E-02
     0.008     0.283   0.969086E-02
     0.008     0.291   0.943241E-02
     0.008     0.299   0.918027E-02
     0.008     0.307   0.893415E-02
     0.008     0.315   0.869406E-02
     0.008     0.323   0.845969E-02
     0.008     0.331   0.823109E-02
     0.008     0.339   0.800795E-02
     0.008     0.346   0.779030E-02
     0.008     0.354   0.757785E-02
     0.008     0.362   0.737066E-02
     0.008     0.370   0.716841E-02
     0.008     0.378   0.697118E-02
     0.008     0.386   0.677866E-02
     0.008     0.394   0.659092E-02
     0.008     0.402   0.640768E-02
     0.008     0.409   0.622900E-02
     0.008     0.417   0.605460E-02
     0.008     0.425   0.588456E-02
     0.008     0.433   0.571858E-02
     0.008     0.441   0.555676E-02
     0.008     0.449   0.539882E-02
     0.008     0.457   0.524484E-02
     0.008     0.465   0.509455E-02
     0.008     0.472   0.494804E-02
     0.008     0.480   0.480503E-02
     0.008     0.488   0.466563E-02
     0.008     0.496   0.452956E-02
     0.008     0.504   0.439693E-02
     0.008     0.512   0.426746E-02
     0.008     0.520   0.414127E-02
     0.008     0.528   0.401809E-02
     0.008     0.535   0.389802E-02
     0.008     0.543   0.378081E-02
     0.008     0.551   0.366657E-02
     0.008     0.559   0.355504E-02
     0.008     0.567   0.344633E-02
     0.008     0.575   0.334018E-02
     0.008     0.583   0.323672E-02
     0.008     0.591   0.313570E-02
     0.008     0.598   0.303722E-02
     0.008     0.606   0.294104E-02
     0.008     0.614   0.284728E-02
     0.008     0.622   0.275570E-02
     0.008     0.630   0.266641E-02
     0.008     0.638   0.257918E-02
     0.008     0.646   0.249411E-02
     0.008     0.654   0.241099E-02
     0.008     0.661   0.232991E-02
     0.008     0.669   0.225067E-02
     0.008     0.677   0.217336E-02
     0.008     0.685   0.209777E-02
     0.008     0.693   0.202400E-02
     0.008     0.701   0.195185E-02
     0.008     0.709   0.188142E-02
     0.008     0.717   0.181250E-02
     0.008     0.724   0.174518E-02
     0.008     0.732   0.167929E-02
     0.008     0.740   0.161490E-02
     0.008     0.748   0.155182E-02
     0.008     0.756   0.149016E-02
     0.008     0.764   0.142972E-02
     0.008     0.772   0.137059E-02
     0.008     0.780   0.131259E-02
     0.008     0.787   0.125580E-02
     0.008     0.795   0.120007E-02
     0.008     0.803   0.114545E-02
     0.008     0.811   0.109179E-02
     0.008     0.819   0.103915E-02
     0.008     0.827   0.987399E-03
     0.008     0.835   0.936575E-03
     0.008     0.843   0.886550E-03
     0.008     0.850   0.837366E-03
     0.008     0.858   0.788899E-03
     0.008     0.866   0.741187E-03
     0.008     0.874   0.694112E-03
     0.008     0.882   0.647705E-03
     0.008     0.890   0.601858E-03
     0.008     0.898   0.556592E-03
     0.008     0.906   0.511810E-03
     0.008     0.913   0.467524E-03
     0.008     0.921   0.423645E-03
     0.008     0.929   0.380180E-03
     0.008     0.937   0.337046E-03
     0.008     0.945   0.294242E-03
     0.008     0.953   0.251695E-03
     0.008     0.961   0.209395E-03
     0.008     0.969   0.167278E-03
     0.008     0.976   0.125326E-03
     0.008     0.984   0.834837E-04
     0.008     0.992   0.417235E-04
     0.008     1.000    0.00000    
     0.016     0.000   0.494537E-01
     0.016     0.008   0.482173E-01
     0.016     0.016   0.470104E-01
     0.016     0.024   0.458323E-01
     0.016     0.031   0.446823E-01
     0.016     0.039   0.435599E-01
     0.016     0.047   0.424642E-01
     0.016     0.055   0.413947E-01
     0.016     0.063   0.403506E-01
     0.016     0.071   0.393316E-01
     0.016     0.079   0.383369E-01
     0.016     0.087   0.373659E-01
     0.016     0.094   0.364181E-01
     0.016     0.102   0.354930E-01
     0.016     0.110   0.345899E-01
     0.016     0.118   0.337084E-01
     0.016     0.126   0.328480E-01
     0.016     0.134   0.320082E-01
     0.016     0.142   0.311883E-01
     0.016     0.150   0.303882E-01
     0.016     0.157   0.296071E-01
     0.016     0.165   0.288448E-01
     0.016     0.173   0.281006E-01
     0.016     0.181   0.273744E-01
     0.016     0.189   0.266654E-01
     0.016     0.197   0.259736E-01
     0.016     0.205   0.252982E-01
     0.016     0.213   0.246391E-01
     0.016     0.220   0.239957E-01
     0.016     0.228   0.233679E-01
     0.016     0.236   0.227550E-01
     0.016     0.244   0.221570E-01
     0.016     0.252   0.215733E-01
     0.016     0.260   0.210037E-01
     0.016     0.268   0.204477E-01
     0.016     0.276   0.199053E-01
     0.016     0.283   0.193757E-01
     0.016     0.291   0.188591E-01
     0.016     0.299   0.183548E-01
     0.016     0.307   0.178629E-01
     0.016     0.315   0.173827E-01
     0.016     0.323   0.169143E-01
     0.016     0.331   0.164571E-01
     0.016     0.339   0.160111E-01
     0.016     0.346   0.155757E-01
     0.016     0.354   0.151512E-01
     0.016     0.362   0.147367E-01
     0.016     0.370   0.143325E-01
     0.016     0.378   0.139380E-01
     0.016     0.386   0.135533E-01
     0.016     0.394   0.131777E-01
     0.016     0.402   0.128115E-01
     0.016     0.409   0.124541E-01
     0.016     0.417   0.121056E-01
     0.016     0.425   0.117654E-01
     0.016     0.433   0.114338E-01
     0.016     0.441   0.111100E-01
     0.016     0.449   0.107944E-01
     0.016     0.457   0.104864E-01
     0.016     0.465   0.101861E-01
     0.016     0.472   0.989295E-02
     0.016     0.480   0.960721E-02
     0.016     0.488   0.932831E-02
     0.016     0.496   0.905644E-02
     0.016     0.504   0.879107E-02
     0.016     0.512   0.853241E-02
     0.016     0.520   0.827992E-02
     0.016     0.528   0.803381E-02
     0.016     0.535   0.779357E-02
     0.016     0.543   0.755941E-02
     0.016     0.551   0.733081E-02
     0.016     0.559   0.710799E-02
     0.016     0.567   0.689045E-02
     0.016     0.575   0.667841E-02
     0.016     0.583   0.647137E-02
     0.016     0.591   0.626956E-02
     0.016     0.598   0.607248E-02
     0.016     0.606   0.588037E-02
     0.016     0.614   0.569273E-02
     0.016     0.622   0.550980E-02
     0.016     0.630   0.533110E-02
     0.016     0.638   0.515686E-02
     0.016     0.646   0.498661E-02
     0.016     0.654   0.482058E-02
     0.016     0.661   0.465832E-02
     0.016     0.669   0.450004E-02
     0.016     0.677   0.434531E-02
     0.016     0.685   0.419433E-02
     0.016     0.693   0.404670E-02
     0.016     0.701   0.390259E-02
     0.016     0.709   0.376161E-02
     0.016     0.717   0.362396E-02
     0.016     0.724   0.348923E-02
     0.016     0.732   0.335762E-02
     0.016     0.740   0.322874E-02
     0.016     0.748   0.310276E-02
     0.016     0.756   0.297934E-02
     0.016     0.764   0.285862E-02
     0.016     0.772   0.274027E-02
     0.016     0.780   0.262444E-02
     0.016     0.787   0.251078E-02
     0.016     0.795   0.239946E-02
     0.016     0.803   0.229014E-02
     0.016     0.811   0.218296E-02
     0.016     0.819   0.207762E-02
     0.016     0.827   0.197424E-02
     0.016     0.835   0.187253E-02
     0.016     0.843   0.177260E-02
     0.016     0.850   0.167418E-02
     0.016     0.858   0.157735E-02
     0.016     0.866   0.148188E-02
     0.016     0.874   0.138783E-02
     0.016     0.882   0.129498E-02
     0.016     0.890   0.120338E-02
     0.016     0.898   0.111282E-02
     0.016     0.906   0.102333E-02
     0.016     0.913   0.934738E-03
     0.016     0.921   0.847053E-03
     0.016     0.929   0.760107E-03
     0.016     0.937   0.673903E-03
     0.016     0.945   0.588288E-03
     0.016     0.953   0.503249E-03
     0.016     0.961   0.418650E-03
     0.016     0.969   0.334463E-03
     0.016     0.976   0.250569E-03
     0.016     0.984   0.166921E-03
     0.016     0.992   0.834193E-04
     0.016     1.000    0.00000    
     0.024     0.000   0.741428E-01
     0.024     0.008   0.722890E-01
     0.024     0.016   0.704796E-01
     0.024     0.024   0.687134E-01
     0.024     0.031   0.669893E-01
     0.024     0.039   0.653065E-01
     0.024     0.047   0.636638E-01
     0.024     0.055   0.620603E-01
     0.024     0.063   0.604951E-01
     0.024     0.071   0.589673E-01
     0.024     0.079   0.574760E-01
     0.024     0.087   0.560202E-01
     0.024     0.094   0.545993E-01
     0.024     0.102   0.532123E-01
     0.024     0.110   0.518584E-01
     0.024     0.118   0.505368E-01
     0.024     0.126   0.492469E-01
     0.024     0.134   0.479877E-01
     0.024     0.142   0.467587E-01
     0.024     0.150   0.455590E-01
     0.024     0.157   0.443881E-01
     0.024     0.165   0.432451E-01
     0.024     0.173   0.421295E-01
     0.024     0.181   0.410406E-01
     0.024     0.189   0.399778E-01
     0.024     0.197   0.389404E-01
     0.024     0.205   0.379280E-01
     0.024     0.213   0.369397E-01
     0.024     0.220   0.359753E-01
     0.024     0.228   0.350339E-01
     0.024     0.236   0.341153E-01
     0.024     0.244   0.332185E-01
     0.024     0.252   0.323435E-01
     0.024     0.260   0.314894E-01
     0.024     0.268   0.306560E-01
     0.024     0.276   0.298425E-01
     0.024     0.283   0.290489E-01
     0.024     0.291   0.282741E-01
     0.024     0.299   0.275183E-01
     0.024     0.307   0.267806E-01
     0.024     0.315   0.260609E-01
     0.024     0.323   0.253584E-01
     0.024     0.331   0.246731E-01
     0.024     0.339   0.240042E-01
     0.024     0.346   0.233518E-01
     0.024     0.354   0.227150E-01
     0.024     0.362   0.220939E-01
     0.024     0.370   0.214877E-01
     0.024     0.378   0.208965E-01
     0.024     0.386   0.203194E-01
     0.024     0.394   0.197566E-01
     0.024     0.402   0.192074E-01
     0.024     0.409   0.186718E-01
     0.024     0.417   0.181490E-01
     0.024     0.425   0.176393E-01
     0.024     0.433   0.171417E-01
     0.024     0.441   0.166567E-01
     0.024     0.449   0.161832E-01
     0.024     0.457   0.157217E-01
     0.024     0.465   0.152712E-01
     0.024     0.472   0.148320E-01
     0.024     0.480   0.144033E-01
     0.024     0.488   0.139855E-01
     0.024     0.496   0.135776E-01
     0.024     0.504   0.131800E-01
     0.024     0.512   0.127919E-01
     0.024     0.520   0.124137E-01
     0.024     0.528   0.120444E-01
     0.024     0.535   0.116845E-01
     0.024     0.543   0.113332E-01
     0.024     0.551   0.109907E-01
     0.024     0.559   0.106564E-01
     0.024     0.567   0.103305E-01
     0.024     0.575   0.100124E-01
     0.024     0.583   0.970225E-02
     0.024     0.591   0.939941E-02
     0.024     0.598   0.910421E-02
     0.024     0.606   0.881592E-02
     0.024     0.614   0.853487E-02
     0.024     0.622   0.826035E-02
     0.024     0.630   0.799270E-02
     0.024     0.638   0.773121E-02
     0.024     0.646   0.747623E-02
     0.024     0.654   0.722706E-02
     0.024     0.661   0.698404E-02
     0.024     0.669   0.674650E-02
     0.024     0.677   0.651476E-02
     0.024     0.685   0.628818E-02
     0.024     0.693   0.606706E-02
     0.024     0.701   0.585079E-02
     0.024     0.709   0.563965E-02
     0.024     0.717   0.543306E-02
     0.024     0.724   0.523128E-02
     0.024     0.732   0.503375E-02
     0.024     0.740   0.484074E-02
     0.024     0.748   0.465168E-02
     0.024     0.756   0.446683E-02
     0.024     0.764   0.428566E-02
     0.024     0.772   0.410840E-02
     0.024     0.780   0.393456E-02
     0.024     0.787   0.376434E-02
     0.024     0.795   0.359727E-02
     0.024     0.803   0.343354E-02
     0.024     0.811   0.327270E-02
     0.024     0.819   0.311492E-02
     0.024     0.827   0.295978E-02
     0.024     0.835   0.280743E-02
     0.024     0.843   0.265748E-02
     0.024     0.850   0.251005E-02
     0.024     0.858   0.236477E-02
     0.024     0.866   0.222175E-02
     0.024     0.874   0.208064E-02
     0.024     0.882   0.194153E-02
     0.024     0.890   0.180410E-02
     0.024     0.898   0.166842E-02
     0.024     0.906   0.153418E-02
     0.024     0.913   0.140143E-02
     0.024     0.921   0.126990E-02
     0.024     0.929   0.113961E-02
     0.024     0.937   0.101031E-02
     0.024     0.945   0.882004E-03
     0.024     0.953   0.754468E-03
     0.024     0.961   0.627672E-03
     0.024     0.969   0.501425E-03
     0.024     0.976   0.375671E-03
     0.024     0.984   0.250247E-03
     0.024     0.992   0.125068E-03
     0.024     1.000    0.00000    
     0.031     0.000   0.987864E-01
     0.031     0.008   0.963166E-01
     0.031     0.016   0.939057E-01
     0.031     0.024   0.915524E-01
     0.031     0.031   0.892553E-01
     0.031     0.039   0.870131E-01
     0.031     0.047   0.848244E-01
     0.031     0.055   0.826880E-01
     0.031     0.063   0.806025E-01
     0.031     0.071   0.785670E-01
     0.031     0.079   0.765799E-01
     0.031     0.087   0.746404E-01
     0.031     0.094   0.727471E-01
     0.031     0.102   0.708991E-01
     0.031     0.110   0.690951E-01
     0.031     0.118   0.673344E-01
     0.031     0.126   0.656156E-01
     0.031     0.134   0.639380E-01
     0.031     0.142   0.623004E-01
     0.031     0.150   0.607020E-01
     0.031     0.157   0.591418E-01
     0.031     0.165   0.576190E-01
     0.031     0.173   0.561325E-01
     0.031     0.181   0.546818E-01
     0.031     0.189   0.532656E-01
     0.031     0.197   0.518836E-01
     0.031     0.205   0.505345E-01
     0.031     0.213   0.492179E-01
     0.031     0.220   0.479327E-01
     0.031     0.228   0.466786E-01
     0.031     0.236   0.454544E-01
     0.031     0.244   0.442599E-01
     0.031     0.252   0.430938E-01
     0.031     0.260   0.419560E-01
     0.031     0.268   0.408454E-01
     0.031     0.276   0.397618E-01
     0.031     0.283   0.387040E-01
     0.031     0.291   0.376721E-01
     0.031     0.299   0.366648E-01
     0.031     0.307   0.356821E-01
     0.031     0.315   0.347229E-01
     0.031     0.323   0.337872E-01
     0.031     0.331   0.328739E-01
     0.031     0.339   0.319830E-01
     0.031     0.346   0.311134E-01
     0.031     0.354   0.302652E-01
     0.031     0.362   0.294374E-01
     0.031     0.370   0.286300E-01
     0.031     0.378   0.278419E-01
     0.031     0.386   0.270734E-01
     0.031     0.394   0.263232E-01
     0.031     0.402   0.255917E-01
     0.031     0.409   0.248777E-01
     0.031     0.417   0.241816E-01
     0.031     0.425   0.235020E-01
     0.031     0.433   0.228395E-01
     0.031     0.441   0.221929E-01
     0.031     0.449   0.215624E-01
     0.031     0.457   0.209471E-01
     0.031     0.465   0.203472E-01
     0.031     0.472   0.197617E-01
     0.031     0.480   0.191909E-01
     0.031     0.488   0.186338E-01
     0.031     0.496   0.180907E-01
     0.031     0.504   0.175606E-01
     0.031     0.512   0.170439E-01
     0.031     0.520   0.165396E-01
     0.031     0.528   0.160480E-01
     0.031     0.535   0.155681E-01
     0.031     0.543   0.151003E-01
     0.031     0.551   0.146437E-01
     0.031     0.559   0.141986E-01
     0.031     0.567   0.137640E-01
     0.031     0.575   0.133405E-01
     0.031     0.583   0.129269E-01
     0.031     0.591   0.125238E-01
     0.031     0.598   0.121301E-01
     0.031     0.606   0.117463E-01
     0.031     0.614   0.113715E-01
     0.031     0.622   0.110061E-01
     0.031     0.630   0.106492E-01
     0.031     0.638   0.103011E-01
     0.031     0.646   0.996102E-02
     0.031     0.654   0.962936E-02
     0.031     0.661   0.930524E-02
     0.031     0.669   0.898907E-02
     0.031     0.677   0.867999E-02
     0.031     0.685   0.837840E-02
     0.031     0.693   0.808349E-02
     0.031     0.701   0.779563E-02
     0.031     0.709   0.751402E-02
     0.031     0.717   0.723905E-02
     0.031     0.724   0.696992E-02
     0.031     0.732   0.670702E-02
     0.031     0.740   0.644957E-02
     0.031     0.748   0.619794E-02
     0.031     0.756   0.595139E-02
     0.031     0.764   0.571025E-02
     0.031     0.772   0.547384E-02
     0.031     0.780   0.524245E-02
     0.031     0.787   0.501542E-02
     0.031     0.795   0.479304E-02
     0.031     0.803   0.457468E-02
     0.031     0.811   0.436058E-02
     0.031     0.819   0.415016E-02
     0.031     0.827   0.394365E-02
     0.031     0.835   0.374048E-02
     0.031     0.843   0.354086E-02
     0.031     0.850   0.334426E-02
     0.031     0.858   0.315085E-02
     0.031     0.866   0.296014E-02
     0.031     0.874   0.277227E-02
     0.031     0.882   0.258679E-02
     0.031     0.890   0.240381E-02
     0.031     0.898   0.222291E-02
     0.031     0.906   0.204416E-02
     0.031     0.913   0.186719E-02
     0.031     0.921   0.169203E-02
     0.031     0.929   0.151835E-02
     0.031     0.937   0.134616E-02
     0.031     0.945   0.117514E-02
     0.031     0.953   0.100527E-02
     0.031     0.961   0.836276E-03
     0.031     0.969   0.668107E-03
     0.031     0.976   0.500524E-03
     0.031     0.984   0.333433E-03
     0.031     0.992   0.166635E-03
     0.031     1.000    0.00000    
     0.039     0.000   0.123370    
     0.039     0.008   0.120285    
     0.039     0.016   0.117274    
     0.039     0.024   0.114335    
     0.039     0.031   0.111467    
     0.039     0.039   0.108667    
     0.039     0.047   0.105933    
     0.039     0.055   0.103265    
     0.039     0.063   0.100661    
     0.039     0.071   0.981185E-01
     0.039     0.079   0.956370E-01
     0.039     0.087   0.932147E-01
     0.039     0.094   0.908504E-01
     0.039     0.102   0.885424E-01
     0.039     0.110   0.862897E-01
     0.039     0.118   0.840906E-01
     0.039     0.126   0.819442E-01
     0.039     0.134   0.798490E-01
     0.039     0.142   0.778040E-01
     0.039     0.150   0.758078E-01
     0.039     0.157   0.738595E-01
     0.039     0.165   0.719575E-01
     0.039     0.173   0.701013E-01
     0.039     0.181   0.682894E-01
     0.039     0.189   0.665210E-01
     0.039     0.197   0.647948E-01
     0.039     0.205   0.631102E-01
     0.039     0.213   0.614657E-01
     0.039     0.220   0.598610E-01
     0.039     0.228   0.582945E-01
     0.039     0.236   0.567660E-01
     0.039     0.244   0.552738E-01
     0.039     0.252   0.538179E-01
     0.039     0.260   0.523967E-01
     0.039     0.268   0.510100E-01
     0.039     0.276   0.496564E-01
     0.039     0.283   0.483358E-01
     0.039     0.291   0.470467E-01
     0.039     0.299   0.457891E-01
     0.039     0.307   0.445615E-01
     0.039     0.315   0.433640E-01
     0.039     0.323   0.421950E-01
     0.039     0.331   0.410548E-01
     0.039     0.339   0.399418E-01
     0.039     0.346   0.388562E-01
     0.039     0.354   0.377966E-01
     0.039     0.362   0.367631E-01
     0.039     0.370   0.357544E-01
     0.039     0.378   0.347706E-01
     0.039     0.386   0.338104E-01
     0.039     0.394   0.328740E-01
     0.039     0.402   0.319600E-01
     0.039     0.409   0.310688E-01
     0.039     0.417   0.301990E-01
     0.039     0.425   0.293508E-01
     0.039     0.433   0.285230E-01
     0.039     0.441   0.277159E-01
     0.039     0.449   0.269281E-01
     0.039     0.457   0.261601E-01
     0.039     0.465   0.254104E-01
     0.039     0.472   0.246797E-01
     0.039     0.480   0.239664E-01
     0.039     0.488   0.232711E-01
     0.039     0.496   0.225924E-01
     0.039     0.504   0.219309E-01
     0.039     0.512   0.212851E-01
     0.039     0.520   0.206557E-01
     0.039     0.528   0.200413E-01
     0.039     0.535   0.194424E-01
     0.039     0.543   0.188578E-01
     0.039     0.551   0.182880E-01
     0.039     0.559   0.177317E-01
     0.039     0.567   0.171895E-01
     0.039     0.575   0.166601E-01
     0.039     0.583   0.161440E-01
     0.039     0.591   0.156401E-01
     0.039     0.598   0.151489E-01
     0.039     0.606   0.146692E-01
     0.039     0.614   0.142016E-01
     0.039     0.622   0.137448E-01
     0.039     0.630   0.132994E-01
     0.039     0.638   0.128643E-01
     0.039     0.646   0.124400E-01
     0.039     0.654   0.120254E-01
     0.039     0.661   0.116211E-01
     0.039     0.669   0.112258E-01
     0.039     0.677   0.108402E-01
     0.039     0.685   0.104632E-01
     0.039     0.693   0.100953E-01
     0.039     0.701   0.973540E-02
     0.039     0.709   0.938408E-02
     0.039     0.717   0.904032E-02
     0.039     0.724   0.870458E-02
     0.039     0.732   0.837590E-02
     0.039     0.740   0.805473E-02
     0.039     0.748   0.774015E-02
     0.039     0.756   0.743256E-02
     0.039     0.764   0.713111E-02
     0.039     0.772   0.683617E-02
     0.039     0.780   0.654690E-02
     0.039     0.787   0.626366E-02
     0.039     0.795   0.598566E-02
     0.039     0.803   0.571322E-02
     0.039     0.811   0.544559E-02
     0.039     0.819   0.518306E-02
     0.039     0.827   0.492492E-02
     0.039     0.835   0.467142E-02
     0.039     0.843   0.442191E-02
     0.039     0.850   0.417659E-02
     0.039     0.858   0.393485E-02
     0.039     0.866   0.369687E-02
     0.039     0.874   0.346207E-02
     0.039     0.882   0.323061E-02
     0.039     0.890   0.300193E-02
     0.039     0.898   0.277615E-02
     0.039     0.906   0.255279E-02
     0.039     0.913   0.233190E-02
     0.039     0.921   0.211305E-02
     0.039     0.929   0.189625E-02
     0.039     0.937   0.168111E-02
     0.039     0.945   0.146761E-02
     0.039     0.953   0.125540E-02
     0.039     0.961   0.104441E-02
     0.039     0.969   0.834345E-03
     0.039     0.976   0.625097E-03
     0.039     0.984   0.416398E-03
     0.039     0.992   0.208107E-03
     0.039     1.000    0.00000    
     0.047     0.000   0.147877    
     0.047     0.008   0.144180    
     0.047     0.016   0.140571    
     0.047     0.024   0.137049    
     0.047     0.031   0.133610    
     0.047     0.039   0.130253    
     0.047     0.047   0.126977    
     0.047     0.055   0.123779    
     0.047     0.063   0.120657    
     0.047     0.071   0.117610    
     0.047     0.079   0.114636    
     0.047     0.087   0.111732    
     0.047     0.094   0.108898    
     0.047     0.102   0.106132    
     0.047     0.110   0.103431    
     0.047     0.118   0.100796    
     0.047     0.126   0.982226E-01
     0.047     0.134   0.957114E-01
     0.047     0.142   0.932599E-01
     0.047     0.150   0.908673E-01
     0.047     0.157   0.885317E-01
     0.047     0.165   0.862522E-01
     0.047     0.173   0.840270E-01
     0.047     0.181   0.818554E-01
     0.047     0.189   0.797354E-01
     0.047     0.197   0.776666E-01
     0.047     0.205   0.756471E-01
     0.047     0.213   0.736763E-01
     0.047     0.220   0.717524E-01
     0.047     0.228   0.698751E-01
     0.047     0.236   0.680425E-01
     0.047     0.244   0.662544E-01
     0.047     0.252   0.645088E-01
     0.047     0.260   0.628057E-01
     0.047     0.268   0.611431E-01
     0.047     0.276   0.595210E-01
     0.047     0.283   0.579376E-01
     0.047     0.291   0.563929E-01
     0.047     0.299   0.548850E-01
     0.047     0.307   0.534140E-01
     0.047     0.315   0.519781E-01
     0.047     0.323   0.505774E-01
     0.047     0.331   0.492102E-01
     0.047     0.339   0.478766E-01
     0.047     0.346   0.465749E-01
     0.047     0.354   0.453053E-01
     0.047     0.362   0.440660E-01
     0.047     0.370   0.428574E-01
     0.047     0.378   0.416776E-01
     0.047     0.386   0.405272E-01
     0.047     0.394   0.394043E-01
     0.047     0.402   0.383093E-01
     0.047     0.409   0.372405E-01
     0.047     0.417   0.361983E-01
     0.047     0.425   0.351812E-01
     0.047     0.433   0.341894E-01
     0.047     0.441   0.332214E-01
     0.047     0.449   0.322777E-01
     0.047     0.457   0.313565E-01
     0.047     0.465   0.304586E-01
     0.047     0.472   0.295821E-01
     0.047     0.480   0.287277E-01
     0.047     0.488   0.278937E-01