Title="Temperature Data"
Variables="X","Y","T"
 
Zone I=   128, J=   128, F=POINT
     0.000     0.000    0.00000    
     0.000     0.008    0.00000    
     0.000     0.016    0.00000    
     0.000     0.024    0.00000    
     0.000     0.031    0.00000    
     0.000     0.039    0.00000    
     0.000     0.047    0.00000    
     0.000     0.055    0.00000    
     0.000     0.063    0.00000    
     0.000     0.071    0.00000    
     0.000     0.079    0.00000    
     0.000     0.087    0.00000    
     0.000     0.094    0.00000    
     0.000     0.102    0.00000    
     0.000     0.110    0.00000    
     0.000     0.118    0.00000    
     0.000     0.126    0.00000    
     0.000     0.134    0.00000    
     0.000     0.142    0.00000    
     0.000     0.150    0.00000    
     0.000     0.157    0.00000    
     0.000     0.165    0.00000    
     0.000     0.173    0.00000    
     0.000     0.181    0.00000    
     0.000     0.189    0.00000    
     0.000     0.197    0.00000    
     0.000     0.205    0.00000    
     0.000     0.213    0.00000    
     0.000     0.220    0.00000    
     0.000     0.228    0.00000    
     0.000     0.236    0.00000    
     0.000     0.244    0.00000    
     0.000     0.252    0.00000    
     0.000     0.260    0.00000    
     0.000     0.268    0.00000    
     0.000     0.276    0.00000    
     0.000     0.283    0.00000    
     0.000     0.291    0.00000    
     0.000     0.299    0.00000    
     0.000     0.307    0.00000    
     0.000     0.315    0.00000    
     0.000     0.323    0.00000    
     0.000     0.331    0.00000    
     0.000     0.339    0.00000    
     0.000     0.346    0.00000    
     0.000     0.354    0.00000    
     0.000     0.362    0.00000    
     0.000     0.370    0.00000    
     0.000     0.378    0.00000    
     0.000     0.386    0.00000    
     0.000     0.394    0.00000    
     0.000     0.402    0.00000    
     0.000     0.409    0.00000    
     0.000     0.417    0.00000    
     0.000     0.425    0.00000    
     0.000     0.433    0.00000    
     0.000     0.441    0.00000    
     0.000     0.449    0.00000    
     0.000     0.457    0.00000    
     0.000     0.465    0.00000    
     0.000     0.472    0.00000    
     0.000     0.480    0.00000    
     0.000     0.488    0.00000    
     0.000     0.496    0.00000    
     0.000     0.504    0.00000    
     0.000     0.512    0.00000    
     0.000     0.520    0.00000    
     0.000     0.528    0.00000    
     0.000     0.535    0.00000    
     0.000     0.543    0.00000    
     0.000     0.551    0.00000    
     0.000     0.559    0.00000    
     0.000     0.567    0.00000    
     0.000     0.575    0.00000    
     0.000     0.583    0.00000    
     0.000     0.591    0.00000    
     0.000     0.598    0.00000    
     0.000     0.606    0.00000    
     0.000     0.614    0.00000    
     0.000     0.622    0.00000    
     0.000     0.630    0.00000    
     0.000     0.638    0.00000    
     0.000     0.646    0.00000    
     0.000     0.654    0.00000    
     0.000     0.661    0.00000    
     0.000     0.669    0.00000    
     0.000     0.677    0.00000    
     0.000     0.685    0.00000    
     0.000     0.693    0.00000    
     0.000     0.701    0.00000    
     0.000     0.709    0.00000    
     0.000     0.717    0.00000    
     0.000     0.724    0.00000    
     0.000     0.732    0.00000    
     0.000     0.740    0.00000    
     0.000     0.748    0.00000    
     0.000     0.756    0.00000    
     0.000     0.764    0.00000    
     0.000     0.772    0.00000    
     0.000     0.780    0.00000    
     0.000     0.787    0.00000    
     0.000     0.795    0.00000    
     0.000     0.803    0.00000    
     0.000     0.811    0.00000    
     0.000     0.819    0.00000    
     0.000     0.827    0.00000    
     0.000     0.835    0.00000    
     0.000     0.843    0.00000    
     0.000     0.850    0.00000    
     0.000     0.858    0.00000    
     0.000     0.866    0.00000    
     0.000     0.874    0.00000    
     0.000     0.882    0.00000    
     0.000     0.890    0.00000    
     0.000     0.898    0.00000    
     0.000     0.906    0.00000    
     0.000     0.913    0.00000    
     0.000     0.921    0.00000    
     0.000     0.929    0.00000    
     0.000     0.937    0.00000    
     0.000     0.945    0.00000    
     0.000     0.953    0.00000    
     0.000     0.961    0.00000    
     0.000     0.969    0.00000    
     0.000     0.976    0.00000    
     0.000     0.984    0.00000    
     0.000     0.992    0.00000    
     0.000     1.000    0.00000    
     0.008     0.000   0.247344E-01
     0.008     0.008   0.235483E-01
     0.008     0.016   0.223800E-01
     0.008     0.024   0.212303E-01
     0.008     0.031   0.201038E-01
     0.008     0.039   0.189994E-01
     0.008     0.047   0.179233E-01
     0.008     0.055   0.168722E-01
     0.008     0.063   0.158540E-01
     0.008     0.071   0.148635E-01
     0.008     0.079   0.139096E-01
     0.008     0.087   0.129856E-01
     0.008     0.094   0.121013E-01
     0.008     0.102   0.112483E-01
     0.008     0.110   0.104371E-01
     0.008     0.118   0.965802E-02
     0.008     0.126   0.892184E-02
     0.008     0.134   0.821806E-02
     0.008     0.142   0.755731E-02
     0.008     0.150   0.692853E-02
     0.008     0.157   0.634207E-02
     0.008     0.165   0.578658E-02
     0.008     0.173   0.527190E-02
     0.008     0.181   0.478669E-02
     0.008     0.189   0.434013E-02
     0.008     0.197   0.392113E-02
     0.008     0.205   0.353811E-02
     0.008     0.213   0.318044E-02
     0.008     0.220   0.285570E-02
     0.008     0.228   0.255390E-02
     0.008     0.236   0.228175E-02
     0.008     0.244   0.203005E-02
     0.008     0.252   0.180463E-02
     0.008     0.260   0.159716E-02
     0.008     0.268   0.141262E-02
     0.008     0.276   0.124360E-02
     0.008     0.283   0.109430E-02
     0.008     0.291   0.958222E-03
     0.008     0.299   0.838846E-03
     0.008     0.307   0.730573E-03
     0.008     0.315   0.636246E-03
     0.008     0.323   0.551112E-03
     0.008     0.331   0.477456E-03
     0.008     0.339   0.411303E-03
     0.008     0.346   0.354467E-03
     0.008     0.354   0.303671E-03
     0.008     0.362   0.260330E-03
     0.008     0.370   0.221786E-03
     0.008     0.378   0.189127E-03
     0.008     0.386   0.160226E-03
     0.008     0.394   0.135907E-03
     0.008     0.402   0.114492E-03
     0.008     0.409   0.965979E-04
     0.008     0.417   0.809180E-04
     0.008     0.425   0.679064E-04
     0.008     0.433   0.565614E-04
     0.008     0.441   0.472123E-04
     0.008     0.449   0.391007E-04
     0.008     0.457   0.324626E-04
     0.008     0.465   0.267316E-04
     0.008     0.472   0.220740E-04
     0.008     0.480   0.180728E-04
     0.008     0.488   0.148436E-04
     0.008     0.496   0.120830E-04
     0.008     0.504   0.987051E-05
     0.008     0.512   0.798843E-05
     0.008     0.520   0.649047E-05
     0.008     0.528   0.522248E-05
     0.008     0.535   0.422026E-05
     0.008     0.543   0.337607E-05
     0.008     0.551   0.271343E-05
     0.008     0.559   0.215802E-05
     0.008     0.567   0.172508E-05
     0.008     0.575   0.136397E-05
     0.008     0.583   0.108443E-05
     0.008     0.591   0.852420E-06
     0.008     0.598   0.674053E-06
     0.008     0.606   0.526737E-06
     0.008     0.614   0.414266E-06
     0.008     0.622   0.321827E-06
     0.008     0.630   0.251740E-06
     0.008     0.638   0.194418E-06
     0.008     0.646   0.151256E-06
     0.008     0.654   0.116127E-06
     0.008     0.661   0.898573E-07
     0.008     0.669   0.685815E-07
     0.008     0.677   0.527808E-07
     0.008     0.685   0.400460E-07
     0.008     0.693   0.306533E-07
     0.008     0.701   0.231200E-07
     0.008     0.709   0.176018E-07
     0.008     0.717   0.131975E-07
     0.008     0.724   0.999340E-08
     0.008     0.732   0.744849E-08
     0.008     0.740   0.560980E-08
     0.008     0.748   0.415644E-08
     0.008     0.756   0.311358E-08
     0.008     0.764   0.229325E-08
     0.008     0.772   0.170864E-08
     0.008     0.780   0.125100E-08
     0.008     0.787   0.927089E-09
     0.008     0.795   0.674749E-09
     0.008     0.803   0.497364E-09
     0.008     0.811   0.359838E-09
     0.008     0.819   0.263822E-09
     0.008     0.827   0.189738E-09
     0.008     0.835   0.138367E-09
     0.008     0.843   0.989207E-10
     0.008     0.850   0.717536E-10
     0.008     0.858   0.509926E-10
     0.008     0.866   0.367914E-10
     0.008     0.874   0.259907E-10
     0.008     0.882   0.186527E-10
     0.008     0.890   0.130984E-10
     0.008     0.898   0.935024E-11
     0.008     0.906   0.652663E-11
     0.008     0.913   0.463394E-11
     0.008     0.921   0.321471E-11
     0.008     0.929   0.226946E-11
     0.008     0.937   0.156363E-11
     0.008     0.945   0.109590E-11
     0.008     0.953   0.747430E-12
     0.008     0.961   0.516329E-12
     0.008     0.969   0.343051E-12
     0.008     0.976   0.225140E-12
     0.008     0.984   0.133049E-12
     0.008     0.992   0.628680E-13
     0.008     1.000    0.00000    
     0.016     0.000   0.494537E-01
     0.016     0.008   0.470826E-01
     0.016     0.016   0.447452E-01
     0.016     0.024   0.424490E-01
     0.016     0.031   0.401935E-01
     0.016     0.039   0.379896E-01
     0.016     0.047   0.358328E-01
     0.016     0.055   0.337373E-01
     0.016     0.063   0.316947E-01
     0.016     0.071   0.297217E-01
     0.016     0.079   0.278065E-01
     0.016     0.087   0.259678E-01
     0.016     0.094   0.241904E-01
     0.016     0.102   0.224947E-01
     0.016     0.110   0.208626E-01
     0.016     0.118   0.193154E-01
     0.016     0.126   0.178329E-01
     0.016     0.134   0.164365E-01
     0.016     0.142   0.151046E-01
     0.016     0.150   0.138582E-01
     0.016     0.157   0.126749E-01
     0.016     0.165   0.115749E-01
     0.016     0.173   0.105354E-01
     0.016     0.181   0.957550E-02
     0.016     0.189   0.867269E-02
     0.016     0.197   0.784462E-02
     0.016     0.205   0.706948E-02
     0.016     0.213   0.636332E-02
     0.016     0.220   0.570546E-02
     0.016     0.228   0.511021E-02
     0.016     0.236   0.455835E-02
     0.016     0.244   0.406240E-02
     0.016     0.252   0.360483E-02
     0.016     0.260   0.319645E-02
     0.016     0.268   0.282149E-02
     0.016     0.276   0.248913E-02
     0.016     0.283   0.218546E-02
     0.016     0.291   0.191814E-02
     0.016     0.299   0.167509E-02
     0.016     0.307   0.146261E-02
     0.016     0.315   0.127036E-02
     0.016     0.323   0.110346E-02
     0.016     0.331   0.953195E-03
     0.016     0.339   0.823638E-03
     0.016     0.346   0.707566E-03
     0.016     0.354   0.608184E-03
     0.016     0.362   0.519584E-03
     0.016     0.370   0.444250E-03
     0.016     0.378   0.377419E-03
     0.016     0.386   0.320988E-03
     0.016     0.394   0.271174E-03
     0.016     0.402   0.229403E-03
     0.016     0.409   0.192711E-03
     0.016     0.417   0.162157E-03
     0.016     0.425   0.135450E-03
     0.016     0.433   0.113366E-03
     0.016     0.441   0.941568E-04
     0.016     0.449   0.783825E-04
     0.016     0.457   0.647300E-04
     0.016     0.465   0.535962E-04
     0.016     0.472   0.440076E-04
     0.016     0.480   0.362421E-04
     0.016     0.488   0.295872E-04
     0.016     0.496   0.242350E-04
     0.016     0.504   0.196709E-04
     0.016     0.512   0.160256E-04
     0.016     0.520   0.129323E-04
     0.016     0.528   0.104789E-04
     0.016     0.535   0.840720E-05
     0.016     0.543   0.677543E-05
     0.016     0.551   0.540433E-05
     0.016     0.559   0.433184E-05
     0.016     0.567   0.343511E-05
     0.016     0.575   0.273852E-05
     0.016     0.583   0.215894E-05
     0.016     0.591   0.171182E-05
     0.016     0.598   0.134164E-05
     0.016     0.606   0.105803E-05
     0.016     0.614   0.824366E-06
     0.016     0.622   0.646587E-06
     0.016     0.630   0.500832E-06
     0.016     0.638   0.390700E-06
     0.016     0.646   0.300848E-06
     0.016     0.654   0.233423E-06
     0.016     0.661   0.178683E-06
     0.016     0.669   0.137888E-06
     0.016     0.677   0.104929E-06
     0.016     0.685   0.805358E-07
     0.016     0.693   0.609236E-07
     0.016     0.701   0.465082E-07
     0.016     0.709   0.349745E-07
     0.016     0.717   0.265551E-07
     0.016     0.724   0.198514E-07
     0.016     0.732   0.149914E-07
     0.016     0.740   0.111406E-07
     0.016     0.748   0.836789E-08
     0.016     0.756   0.618157E-08
     0.016     0.764   0.461814E-08
     0.016     0.772   0.339130E-08
     0.016     0.780   0.251999E-08
     0.016     0.787   0.183955E-08
     0.016     0.795   0.135959E-08
     0.016     0.803   0.986590E-09
     0.016     0.811   0.725276E-09
     0.016     0.819   0.523170E-09
     0.016     0.827   0.382545E-09
     0.016     0.835   0.274304E-09
     0.016     0.843   0.199503E-09
     0.016     0.850   0.142203E-09
     0.016     0.858   0.102874E-09
     0.016     0.866   0.728909E-10
     0.016     0.874   0.524510E-10
     0.016     0.882   0.369427E-10
     0.016     0.890   0.264420E-10
     0.016     0.898   0.185127E-10
     0.016     0.906   0.131798E-10
     0.016     0.913   0.917177E-11
     0.016     0.921   0.649391E-11
     0.016     0.929   0.449034E-11
     0.016     0.937   0.315968E-11
     0.016     0.945   0.216763E-11
     0.016     0.953   0.151086E-11
     0.016     0.961   0.102094E-11
     0.016     0.969   0.693654E-12
     0.016     0.976   0.445049E-12
     0.016     0.984   0.269088E-12
     0.016     0.992   0.124255E-12
     0.016     1.000    0.00000    
     0.024     0.000   0.741428E-01
     0.024     0.008   0.705871E-01
     0.024     0.016   0.670851E-01
     0.024     0.024   0.636389E-01
     0.024     0.031   0.602623E-01
     0.024     0.039   0.569517E-01
     0.024     0.047   0.537259E-01
     0.024     0.055   0.505753E-01
     0.024     0.063   0.475231E-01
     0.024     0.071   0.445540E-01
     0.024     0.079   0.416948E-01
     0.024     0.087   0.389251E-01
     0.024     0.094   0.362742E-01
     0.024     0.102   0.337174E-01
     0.024     0.110   0.312856E-01
     0.024     0.118   0.289504E-01
     0.024     0.126   0.267437E-01
     0.024     0.134   0.246341E-01
     0.024     0.142   0.226534E-01
     0.024     0.150   0.207686E-01
     0.024     0.157   0.190107E-01
     0.024     0.165   0.173456E-01
     0.024     0.173   0.158028E-01
     0.024     0.181   0.143483E-01
     0.024     0.189   0.130098E-01
     0.024     0.197   0.117538E-01
     0.024     0.205   0.106057E-01
     0.024     0.213   0.953354E-02
     0.024     0.220   0.856010E-02
     0.024     0.228   0.765545E-02
     0.024     0.236   0.683967E-02
     0.024     0.244   0.608519E-02
     0.024     0.252   0.540948E-02
     0.024     0.260   0.478757E-02
     0.024     0.268   0.423441E-02
     0.024     0.276   0.372776E-02
     0.024     0.283   0.328023E-02
     0.024     0.291   0.287232E-02
     0.024     0.299   0.251449E-02
     0.024     0.307   0.218993E-02
     0.024     0.315   0.190718E-02
     0.024     0.323   0.165199E-02
     0.024     0.331   0.143120E-02
     0.024     0.339   0.123290E-02
     0.024     0.346   0.106253E-02
     0.024     0.354   0.910269E-03
     0.024     0.362   0.780353E-03
     0.024     0.370   0.664816E-03
     0.024     0.378   0.566919E-03
     0.024     0.386   0.480286E-03
     0.024     0.394   0.407389E-03
     0.024     0.402   0.343197E-03
     0.024     0.409   0.289557E-03
     0.024     0.417   0.242556E-03
     0.024     0.425   0.203553E-03
     0.024     0.433   0.169546E-03
     0.024     0.441   0.141521E-03
     0.024     0.449   0.117206E-03
     0.024     0.457   0.973083E-04
     0.024     0.465   0.801292E-04
     0.024     0.472   0.661681E-04
     0.024     0.480   0.541741E-04
     0.024     0.488   0.444943E-04
     0.024     0.496   0.362194E-04
     0.024     0.504   0.295874E-04
     0.024     0.512   0.239458E-04
     0.024     0.520   0.194555E-04
     0.024     0.528   0.156547E-04
     0.024     0.535   0.126504E-04
     0.024     0.543   0.101199E-04
     0.024     0.551   0.813366E-05
     0.024     0.559   0.646879E-05
     0.024     0.567   0.517102E-05
     0.024     0.575   0.408858E-05
     0.024     0.583   0.325065E-05
     0.024     0.591   0.255517E-05
     0.024     0.598   0.202051E-05
     0.024     0.606   0.157892E-05
     0.024     0.614   0.124178E-05
     0.024     0.622   0.964695E-06
     0.024     0.630   0.754604E-06
     0.024     0.638   0.582779E-06
     0.024     0.646   0.453397E-06
     0.024     0.654   0.348096E-06
     0.024     0.661   0.269352E-06
     0.024     0.669   0.205577E-06
     0.024     0.677   0.158213E-06
     0.024     0.685   0.120040E-06
     0.024     0.693   0.918849E-07
     0.024     0.701   0.693033E-07
     0.024     0.709   0.527623E-07
     0.024     0.717   0.395601E-07
     0.024     0.724   0.299558E-07
     0.024     0.732   0.223273E-07
     0.024     0.740   0.168157E-07
     0.024     0.748   0.124592E-07
     0.024     0.756   0.933312E-08
     0.024     0.764   0.687413E-08
     0.024     0.772   0.512174E-08
     0.024     0.780   0.374994E-08
     0.024     0.787   0.277900E-08
     0.024     0.795   0.202259E-08
     0.024     0.803   0.149087E-08
     0.024     0.811   0.107863E-08
     0.024     0.819   0.790819E-09
     0.024     0.827   0.568750E-09
     0.024     0.835   0.414762E-09
     0.024     0.843   0.296520E-09
     0.024     0.850   0.215085E-09
     0.024     0.858   0.152853E-09
     0.024     0.866   0.110284E-09
     0.024     0.874   0.779085E-10
     0.024     0.882   0.559124E-10
     0.024     0.890   0.392631E-10
     0.024     0.898   0.280278E-10
     0.024     0.906   0.195639E-10
     0.024     0.913   0.138905E-10
     0.024     0.921   0.963627E-11
     0.024     0.929   0.680282E-11
     0.024     0.937   0.468706E-11
     0.024     0.945   0.328503E-11
     0.024     0.953   0.224046E-11
     0.024     0.961   0.154772E-11
     0.024     0.969   0.102831E-11
     0.024     0.976   0.674868E-12
     0.024     0.984   0.398821E-12
     0.024     0.992   0.188450E-12
     0.024     1.000    0.00000    
     0.031     0.000   0.987864E-01
     0.031     0.008   0.940500E-01
     0.031     0.016   0.893810E-01
     0.031     0.024   0.847942E-01
     0.031     0.031   0.802886E-01
     0.031     0.039   0.758861E-01
     0.031     0.047   0.715779E-01
     0.031     0.055   0.673920E-01
     0.031     0.063   0.633118E-01
     0.031     0.071   0.593707E-01
     0.031     0.079   0.555450E-01
     0.031     0.087   0.518720E-01
     0.031     0.094   0.483217E-01
     0.031     0.102   0.449343E-01
     0.031     0.110   0.416742E-01
     0.031     0.118   0.385835E-01
     0.031     0.126   0.356221E-01
     0.031     0.134   0.328327E-01
     0.031     0.142   0.301722E-01
     0.031     0.150   0.276825E-01
     0.031     0.157   0.253188E-01
     0.031     0.165   0.231215E-01
     0.031     0.173   0.210450E-01
     0.031     0.181   0.191276E-01
     0.031     0.189   0.173242E-01
     0.031     0.197   0.156700E-01
     0.031     0.205   0.141217E-01
     0.031     0.213   0.127111E-01
     0.031     0.220   0.113970E-01
     0.031     0.228   0.102079E-01
     0.031     0.236   0.910554E-02
     0.031     0.244   0.811487E-02
     0.031     0.252   0.720085E-02
     0.031     0.260   0.638507E-02
     0.031     0.268   0.563607E-02
     0.031     0.276   0.497216E-02
     0.031     0.283   0.436556E-02
     0.031     0.291   0.383158E-02
     0.031     0.299   0.334608E-02
     0.031     0.307   0.292164E-02
     0.031     0.315   0.253762E-02
     0.031     0.323   0.220423E-02
     0.031     0.331   0.190406E-02
     0.031     0.339   0.164526E-02
     0.031     0.346   0.141340E-02
     0.031     0.354   0.121488E-02
     0.031     0.362   0.103790E-02
     0.031     0.370   0.887413E-03
     0.031     0.378   0.753915E-03
     0.031     0.386   0.641191E-03
     0.031     0.394   0.541684E-03
     0.031     0.402   0.458244E-03
     0.031     0.409   0.384950E-03
     0.031     0.417   0.323917E-03
     0.031     0.425   0.270569E-03
     0.031     0.433   0.226454E-03
     0.031     0.441   0.188083E-03
     0.031     0.449   0.156573E-03
     0.031     0.457   0.129302E-03
     0.031     0.465   0.107061E-03
     0.031     0.472   0.879074E-04
     0.031     0.480   0.723955E-04
     0.031     0.488   0.591020E-04
     0.031     0.496   0.484107E-04
     0.031     0.504   0.392936E-04
     0.031     0.512   0.320119E-04
     0.031     0.520   0.258330E-04
     0.031     0.528   0.209321E-04
     0.031     0.535   0.167938E-04
     0.031     0.543   0.135343E-04
     0.031     0.551   0.107954E-04
     0.031     0.559   0.865309E-05
     0.031     0.567   0.686181E-05
     0.031     0.575   0.547033E-05
     0.031     0.583   0.431259E-05
     0.031     0.591   0.341946E-05
     0.031     0.598   0.267999E-05
     0.031     0.606   0.211347E-05
     0.031     0.614   0.164671E-05
     0.031     0.622   0.129159E-05
     0.031     0.630   0.100044E-05
     0.031     0.638   0.780444E-06
     0.031     0.646   0.600959E-06
     0.031     0.654   0.466276E-06
     0.031     0.661   0.356928E-06
     0.031     0.669   0.275439E-06
     0.031     0.677   0.209601E-06
     0.031     0.685   0.160874E-06
     0.031     0.693   0.121698E-06
     0.031     0.701   0.929025E-07
     0.031     0.709   0.698634E-07
     0.031     0.717   0.530451E-07
     0.031     0.724   0.396543E-07
     0.031     0.732   0.299462E-07
     0.031     0.740   0.222539E-07
     0.031     0.748   0.167153E-07
     0.031     0.756   0.123480E-07
     0.031     0.764   0.922499E-08
     0.031     0.772   0.677431E-08
     0.031     0.780   0.503380E-08
     0.031     0.787   0.367460E-08
     0.031     0.795   0.271586E-08
     0.031     0.803   0.197076E-08
     0.031     0.811   0.144878E-08
     0.031     0.819   0.104506E-08
     0.031     0.827   0.764154E-09
     0.031     0.835   0.547937E-09
     0.031     0.843   0.398517E-09
     0.031     0.850   0.284058E-09
     0.031     0.858   0.205496E-09
     0.031     0.866   0.145603E-09
     0.031     0.874   0.104774E-09
     0.031     0.882   0.737950E-10
     0.031     0.890   0.528193E-10
     0.031     0.898   0.369800E-10
     0.031     0.906   0.263274E-10
     0.031     0.913   0.183211E-10
     0.031     0.921   0.129719E-10
     0.031     0.929   0.896969E-11
     0.031     0.937   0.631163E-11
     0.031     0.945   0.432995E-11
     0.031     0.953   0.301802E-11
     0.031     0.961   0.203938E-11
     0.031     0.969   0.138561E-11
     0.031     0.976   0.889008E-12
     0.031     0.984   0.537517E-12
     0.031     0.992   0.248206E-12
     0.031     1.000    0.00000    
     0.039     0.000   0.123370    
     0.039     0.008   0.117453    
     0.039     0.016   0.111626    
     0.039     0.024   0.105892    
     0.039     0.031   0.100273    
     0.039     0.039   0.947647E-01
     0.039     0.047   0.893971E-01
     0.039     0.055   0.841547E-01
     0.039     0.063   0.790759E-01
     0.039     0.071   0.741355E-01
     0.039     0.079   0.693780E-01
     0.039     0.087   0.647693E-01
     0.039     0.094   0.603584E-01
     0.039     0.102   0.561040E-01
     0.039     0.110   0.520576E-01
     0.039     0.118   0.481720E-01
     0.039     0.126   0.445001E-01
     0.039     0.134   0.409898E-01
     0.039     0.142   0.376941E-01
     0.039     0.150   0.345579E-01
     0.039     0.157   0.316328E-01
     0.039     0.165   0.288621E-01
     0.039     0.173   0.262950E-01
     0.039     0.181   0.238749E-01
     0.039     0.189   0.216476E-01
     0.039     0.197   0.195577E-01
     0.039     0.205   0.176473E-01
     0.039     0.213   0.158633E-01
     0.039     0.220   0.142436E-01
     0.039     0.228   0.127383E-01
     0.039     0.236   0.113809E-01
     0.039     0.244   0.101254E-01
     0.039     0.252   0.900109E-02
     0.039     0.260   0.796626E-02
     0.039     0.268   0.704583E-02
     0.039     0.276   0.620280E-02
     0.039     0.283   0.545813E-02
     0.039     0.291   0.477939E-02
     0.039     0.299   0.418397E-02
     0.039     0.307   0.364393E-02
     0.039     0.315   0.317345E-02
     0.039     0.323   0.274882E-02
     0.039     0.331   0.238144E-02
     0.039     0.339   0.205149E-02
     0.039     0.346   0.176800E-02
     0.039     0.354   0.151464E-02
     0.039     0.362   0.129847E-02
     0.039     0.370   0.110622E-02
     0.039     0.378   0.943323E-03
     0.039     0.386   0.799171E-03
     0.039     0.394   0.677874E-03
     0.039     0.402   0.571062E-03
     0.039     0.409   0.481808E-03
     0.039     0.417   0.403600E-03
     0.039     0.425   0.338702E-03
     0.039     0.433   0.282115E-03
     0.039     0.441   0.235484E-03
     0.039     0.449   0.195025E-03
     0.039     0.457   0.161916E-03
     0.039     0.465   0.133331E-03
     0.039     0.472   0.110100E-03
     0.039     0.480   0.901428E-04
     0.039     0.488   0.740362E-04
     0.039     0.496   0.602672E-04
     0.039     0.504   0.492318E-04
     0.039     0.512   0.398445E-04
     0.039     0.520   0.323730E-04
     0.039     0.528   0.260485E-04
     0.039     0.535   0.210497E-04
     0.039     0.543   0.168390E-04
     0.039     0.551   0.135340E-04
     0.039     0.559   0.107637E-04
     0.039     0.567   0.860430E-05
     0.039     0.575   0.680318E-05
     0.039     0.583   0.540890E-05
     0.039     0.591   0.425167E-05
     0.039     0.598   0.336202E-05
     0.039     0.606   0.262724E-05
     0.039     0.614   0.206626E-05
     0.039     0.622   0.160520E-05
     0.039     0.630   0.125562E-05
     0.039     0.638   0.969713E-06
     0.039     0.646   0.754428E-06
     0.039     0.654   0.579214E-06
     0.039     0.661   0.448188E-06
     0.039     0.669   0.342069E-06
     0.039     0.677   0.263258E-06
     0.039     0.685   0.199740E-06
     0.039     0.693   0.152892E-06
     0.039     0.701   0.115317E-06
     0.039     0.709   0.877936E-07
     0.039     0.717   0.658259E-07
     0.039     0.724   0.498448E-07
     0.039     0.732   0.371514E-07
     0.039     0.740   0.279804E-07
     0.039     0.748   0.207314E-07
     0.039     0.756   0.155298E-07
     0.039     0.764   0.114382E-07
     0.039     0.772   0.852230E-08
     0.039     0.780   0.623970E-08
     0.039     0.787   0.462411E-08
     0.039     0.795   0.336549E-08
     0.039     0.803   0.248074E-08
     0.039     0.811   0.179479E-08
     0.039     0.819   0.131588E-08
     0.039     0.827   0.946370E-09
     0.039     0.835   0.690143E-09
     0.039     0.843   0.493394E-09
     0.039     0.850   0.357890E-09
     0.039     0.858   0.254340E-09
     0.039     0.866   0.183507E-09
     0.039     0.874   0.129636E-09
     0.039     0.882   0.930352E-10
     0.039     0.890   0.653317E-10
     0.039     0.898   0.466368E-10
     0.039     0.906   0.325534E-10
     0.039     0.913   0.231130E-10
     0.039     0.921   0.160342E-10
     0.039     0.929   0.113195E-10
     0.039     0.937   0.779901E-11
     0.039     0.945   0.546611E-11
     0.039     0.953   0.372801E-11
     0.039     0.961   0.257533E-11
     0.039     0.969   0.171106E-11
     0.039     0.976   0.112295E-11
     0.039     0.984   0.663617E-12
     0.039     0.992   0.313571E-12
     0.039     1.000    0.00000    
     0.047     0.000   0.147877    
     0.047     0.008   0.140787    
     0.047     0.016   0.133798    
     0.047     0.024   0.126932    
     0.047     0.031   0.120187    
     0.047     0.039   0.113597    
     0.047     0.047   0.107148    
     0.047     0.055   0.100882    
     0.047     0.063   0.947740E-01
     0.047     0.071   0.888744E-01
     0.047     0.079   0.831475E-01
     0.047     0.087   0.776493E-01
     0.047     0.094   0.723346E-01
     0.047     0.102   0.672639E-01
     0.047     0.110   0.623838E-01
     0.047     0.118   0.577571E-01
     0.047     0.126   0.533242E-01
     0.047     0.134   0.491486E-01
     0.047     0.142   0.451660E-01
     0.047     0.150   0.414391E-01
     0.047     0.157   0.379007E-01
     0.047     0.165   0.346114E-01
     0.047     0.173   0.315031E-01
     0.047     0.181   0.286328E-01
     0.047     0.189   0.259332E-01
     0.047     0.197   0.234571E-01
     0.047     0.205   0.211393E-01
     0.047     0.213   0.190277E-01
     0.047     0.220   0.170606E-01
     0.047     0.228   0.152806E-01
     0.047     0.236   0.136304E-01
     0.047     0.244   0.121475E-01
     0.047     0.252   0.107792E-01
     0.047     0.260   0.955807E-02
     0.047     0.268   0.843686E-02
     0.047     0.276   0.744303E-02
     0.047     0.283   0.653499E-02
     0.047     0.291   0.573565E-02
     0.047     0.299   0.500888E-02
     0.047     0.307   0.437352E-02
     0.047     0.315   0.379867E-02
     0.047     0.323   0.329959E-02
     0.047     0.331   0.285026E-02
     0.047     0.339   0.246286E-02
     0.047     0.346   0.211578E-02
     0.047     0.354   0.181860E-02
     0.047     0.362   0.155367E-02
     0.047     0.370   0.132840E-02
     0.047     0.378   0.112857E-02
     0.047     0.386   0.959825E-03
     0.047     0.394   0.810869E-03
     0.047     0.402   0.685964E-03
     0.047     0.409   0.576247E-03
     0.047     0.417   0.484884E-03
     0.047     0.425   0.405026E-03
     0.047     0.433   0.338988E-03
     0.047     0.441   0.281549E-03
     0.047     0.449   0.234381E-03
     0.047     0.457   0.193557E-03
     0.047     0.465   0.160264E-03
     0.047     0.472   0.131592E-03
     0.047     0.480   0.108372E-03
     0.047     0.488   0.884721E-04