Title="Temperature Data"
Variables="X","Y","T"
 
Zone I=   128, J=   128, F=POINT
     0.000     0.000    0.00000    
     0.000     0.008    0.00000    
     0.000     0.016    0.00000    
     0.000     0.024    0.00000    
     0.000     0.031    0.00000    
     0.000     0.039    0.00000    
     0.000     0.047    0.00000    
     0.000     0.055    0.00000    
     0.000     0.063    0.00000    
     0.000     0.071    0.00000    
     0.000     0.079    0.00000    
     0.000     0.087    0.00000    
     0.000     0.094    0.00000    
     0.000     0.102    0.00000    
     0.000     0.110    0.00000    
     0.000     0.118    0.00000    
     0.000     0.126    0.00000    
     0.000     0.134    0.00000    
     0.000     0.142    0.00000    
     0.000     0.150    0.00000    
     0.000     0.157    0.00000    
     0.000     0.165    0.00000    
     0.000     0.173    0.00000    
     0.000     0.181    0.00000    
     0.000     0.189    0.00000    
     0.000     0.197    0.00000    
     0.000     0.205    0.00000    
     0.000     0.213    0.00000    
     0.000     0.220    0.00000    
     0.000     0.228    0.00000    
     0.000     0.236    0.00000    
     0.000     0.244    0.00000    
     0.000     0.252    0.00000    
     0.000     0.260    0.00000    
     0.000     0.268    0.00000    
     0.000     0.276    0.00000    
     0.000     0.283    0.00000    
     0.000     0.291    0.00000    
     0.000     0.299    0.00000    
     0.000     0.307    0.00000    
     0.000     0.315    0.00000    
     0.000     0.323    0.00000    
     0.000     0.331    0.00000    
     0.000     0.339    0.00000    
     0.000     0.346    0.00000    
     0.000     0.354    0.00000    
     0.000     0.362    0.00000    
     0.000     0.370    0.00000    
     0.000     0.378    0.00000    
     0.000     0.386    0.00000    
     0.000     0.394    0.00000    
     0.000     0.402    0.00000    
     0.000     0.409    0.00000    
     0.000     0.417    0.00000    
     0.000     0.425    0.00000    
     0.000     0.433    0.00000    
     0.000     0.441    0.00000    
     0.000     0.449    0.00000    
     0.000     0.457    0.00000    
     0.000     0.465    0.00000    
     0.000     0.472    0.00000    
     0.000     0.480    0.00000    
     0.000     0.488    0.00000    
     0.000     0.496    0.00000    
     0.000     0.504    0.00000    
     0.000     0.512    0.00000    
     0.000     0.520    0.00000    
     0.000     0.528    0.00000    
     0.000     0.535    0.00000    
     0.000     0.543    0.00000    
     0.000     0.551    0.00000    
     0.000     0.559    0.00000    
     0.000     0.567    0.00000    
     0.000     0.575    0.00000    
     0.000     0.583    0.00000    
     0.000     0.591    0.00000    
     0.000     0.598    0.00000    
     0.000     0.606    0.00000    
     0.000     0.614    0.00000    
     0.000     0.622    0.00000    
     0.000     0.630    0.00000    
     0.000     0.638    0.00000    
     0.000     0.646    0.00000    
     0.000     0.654    0.00000    
     0.000     0.661    0.00000    
     0.000     0.669    0.00000    
     0.000     0.677    0.00000    
     0.000     0.685    0.00000    
     0.000     0.693    0.00000    
     0.000     0.701    0.00000    
     0.000     0.709    0.00000    
     0.000     0.717    0.00000    
     0.000     0.724    0.00000    
     0.000     0.732    0.00000    
     0.000     0.740    0.00000    
     0.000     0.748    0.00000    
     0.000     0.756    0.00000    
     0.000     0.764    0.00000    
     0.000     0.772    0.00000    
     0.000     0.780    0.00000    
     0.000     0.787    0.00000    
     0.000     0.795    0.00000    
     0.000     0.803    0.00000    
     0.000     0.811    0.00000    
     0.000     0.819    0.00000    
     0.000     0.827    0.00000    
     0.000     0.835    0.00000    
     0.000     0.843    0.00000    
     0.000     0.850    0.00000    
     0.000     0.858    0.00000    
     0.000     0.866    0.00000    
     0.000     0.874    0.00000    
     0.000     0.882    0.00000    
     0.000     0.890    0.00000    
     0.000     0.898    0.00000    
     0.000     0.906    0.00000    
     0.000     0.913    0.00000    
     0.000     0.921    0.00000    
     0.000     0.929    0.00000    
     0.000     0.937    0.00000    
     0.000     0.945    0.00000    
     0.000     0.953    0.00000    
     0.000     0.961    0.00000    
     0.000     0.969    0.00000    
     0.000     0.976    0.00000    
     0.000     0.984    0.00000    
     0.000     0.992    0.00000    
     0.000     1.000    0.00000    
     0.008     0.000   0.247344E-01
     0.008     0.008   0.241200E-01
     0.008     0.016   0.235204E-01
     0.008     0.024   0.229351E-01
     0.008     0.031   0.223640E-01
     0.008     0.039   0.218065E-01
     0.008     0.047   0.212625E-01
     0.008     0.055   0.207315E-01
     0.008     0.063   0.202133E-01
     0.008     0.071   0.197075E-01
     0.008     0.079   0.192139E-01
     0.008     0.087   0.187321E-01
     0.008     0.094   0.182619E-01
     0.008     0.102   0.178029E-01
     0.008     0.110   0.173550E-01
     0.008     0.118   0.169178E-01
     0.008     0.126   0.164912E-01
     0.008     0.134   0.160747E-01
     0.008     0.142   0.156683E-01
     0.008     0.150   0.152716E-01
     0.008     0.157   0.148845E-01
     0.008     0.165   0.145066E-01
     0.008     0.173   0.141379E-01
     0.008     0.181   0.137779E-01
     0.008     0.189   0.134267E-01
     0.008     0.197   0.130838E-01
     0.008     0.205   0.127492E-01
     0.008     0.213   0.124226E-01
     0.008     0.220   0.121038E-01
     0.008     0.228   0.117927E-01
     0.008     0.236   0.114891E-01
     0.008     0.244   0.111928E-01
     0.008     0.252   0.109036E-01
     0.008     0.260   0.106213E-01
     0.008     0.268   0.103459E-01
     0.008     0.276   0.100770E-01
     0.008     0.283   0.981462E-02
     0.008     0.291   0.955852E-02
     0.008     0.299   0.930861E-02
     0.008     0.307   0.906467E-02
     0.008     0.315   0.882665E-02
     0.008     0.323   0.859429E-02
     0.008     0.331   0.836758E-02
     0.008     0.339   0.814627E-02
     0.008     0.346   0.793033E-02
     0.008     0.354   0.771953E-02
     0.008     0.362   0.751386E-02
     0.008     0.370   0.731309E-02
     0.008     0.378   0.711719E-02
     0.008     0.386   0.692596E-02
     0.008     0.394   0.673938E-02
     0.008     0.402   0.655722E-02
     0.008     0.409   0.637951E-02
     0.008     0.417   0.620601E-02
     0.008     0.425   0.603674E-02
     0.008     0.433   0.587147E-02
     0.008     0.441   0.571024E-02
     0.008     0.449   0.555281E-02
     0.008     0.457   0.539922E-02
     0.008     0.465   0.524925E-02
     0.008     0.472   0.510294E-02
     0.008     0.480   0.496006E-02
     0.008     0.488   0.482067E-02
     0.008     0.496   0.468454E-02
     0.008     0.504   0.455172E-02
     0.008     0.512   0.442201E-02
     0.008     0.520   0.429544E-02
     0.008     0.528   0.417183E-02
     0.008     0.535   0.405120E-02
     0.008     0.543   0.393337E-02
     0.008     0.551   0.381838E-02
     0.008     0.559   0.370605E-02
     0.008     0.567   0.359641E-02
     0.008     0.575   0.348928E-02
     0.008     0.583   0.338472E-02
     0.008     0.591   0.328253E-02
     0.008     0.598   0.318278E-02
     0.008     0.606   0.308527E-02
     0.008     0.614   0.299007E-02
     0.008     0.622   0.289699E-02
     0.008     0.630   0.280608E-02
     0.008     0.638   0.271719E-02
     0.008     0.646   0.263035E-02
     0.008     0.654   0.254541E-02
     0.008     0.661   0.246241E-02
     0.008     0.669   0.238119E-02
     0.008     0.677   0.230181E-02
     0.008     0.685   0.222410E-02
     0.008     0.693   0.214811E-02
     0.008     0.701   0.207370E-02
     0.008     0.709   0.200090E-02
     0.008     0.717   0.192958E-02
     0.008     0.724   0.185978E-02
     0.008     0.732   0.179135E-02
     0.008     0.740   0.172435E-02
     0.008     0.748   0.165862E-02
     0.008     0.756   0.159422E-02
     0.008     0.764   0.153101E-02
     0.008     0.772   0.146903E-02
     0.008     0.780   0.140815E-02
     0.008     0.787   0.134841E-02
     0.008     0.795   0.128969E-02
     0.008     0.803   0.123202E-02
     0.008     0.811   0.117528E-02
     0.008     0.819   0.111950E-02
     0.008     0.827   0.106458E-02
     0.008     0.835   0.101052E-02
     0.008     0.843   0.957246E-03
     0.008     0.850   0.904757E-03
     0.008     0.858   0.852963E-03
     0.008     0.866   0.801876E-03
     0.008     0.874   0.751405E-03
     0.008     0.882   0.701561E-03
     0.008     0.890   0.652258E-03
     0.008     0.898   0.603501E-03
     0.008     0.906   0.555210E-03
     0.008     0.913   0.507385E-03
     0.008     0.921   0.459954E-03
     0.008     0.929   0.412909E-03
     0.008     0.937   0.366185E-03
     0.008     0.945   0.319770E-03
     0.008     0.953   0.273603E-03
     0.008     0.961   0.227668E-03
     0.008     0.969   0.181910E-03
     0.008     0.976   0.136305E-03
     0.008     0.984   0.908071E-04
     0.008     0.992   0.453859E-04
     0.008     1.000    0.00000    
     0.016     0.000   0.494537E-01
     0.016     0.008   0.482253E-01
     0.016     0.016   0.470264E-01
     0.016     0.024   0.458563E-01
     0.016     0.031   0.447143E-01
     0.016     0.039   0.435997E-01
     0.016     0.047   0.425120E-01
     0.016     0.055   0.414503E-01
     0.016     0.063   0.404142E-01
     0.016     0.071   0.394029E-01
     0.016     0.079   0.384159E-01
     0.016     0.087   0.374527E-01
     0.016     0.094   0.365125E-01
     0.016     0.102   0.355950E-01
     0.016     0.110   0.346994E-01
     0.016     0.118   0.338254E-01
     0.016     0.126   0.329723E-01
     0.016     0.134   0.321397E-01
     0.016     0.142   0.313271E-01
     0.016     0.150   0.305340E-01
     0.016     0.157   0.297599E-01
     0.016     0.165   0.290044E-01
     0.016     0.173   0.282671E-01
     0.016     0.181   0.275475E-01
     0.016     0.189   0.268450E-01
     0.016     0.197   0.261596E-01
     0.016     0.205   0.254905E-01
     0.016     0.213   0.248376E-01
     0.016     0.220   0.242002E-01
     0.016     0.228   0.235783E-01
     0.016     0.236   0.229712E-01
     0.016     0.244   0.223788E-01
     0.016     0.252   0.218005E-01
     0.016     0.260   0.212362E-01
     0.016     0.268   0.206854E-01
     0.016     0.276   0.201479E-01
     0.016     0.283   0.196232E-01
     0.016     0.291   0.191112E-01
     0.016     0.299   0.186115E-01
     0.016     0.307   0.181238E-01
     0.016     0.315   0.176478E-01
     0.016     0.323   0.171834E-01
     0.016     0.331   0.167300E-01
     0.016     0.339   0.162876E-01
     0.016     0.346   0.158558E-01
     0.016     0.354   0.154344E-01
     0.016     0.362   0.150231E-01
     0.016     0.370   0.146218E-01
     0.016     0.378   0.142300E-01
     0.016     0.386   0.138477E-01
     0.016     0.394   0.134746E-01
     0.016     0.402   0.131105E-01
     0.016     0.409   0.127551E-01
     0.016     0.417   0.124083E-01
     0.016     0.425   0.120697E-01
     0.016     0.433   0.117394E-01
     0.016     0.441   0.114169E-01
     0.016     0.449   0.111023E-01
     0.016     0.457   0.107951E-01
     0.016     0.465   0.104953E-01
     0.016     0.472   0.102027E-01
     0.016     0.480   0.991715E-02
     0.016     0.488   0.963832E-02
     0.016     0.496   0.936627E-02
     0.016     0.504   0.910060E-02
     0.016     0.512   0.884138E-02
     0.016     0.520   0.858820E-02
     0.016     0.528   0.834116E-02
     0.016     0.535   0.809986E-02
     0.016     0.543   0.786439E-02
     0.016     0.551   0.763437E-02
     0.016     0.559   0.740988E-02
     0.016     0.567   0.719056E-02
     0.016     0.575   0.697649E-02
     0.016     0.583   0.676731E-02
     0.016     0.591   0.656312E-02
     0.016     0.598   0.636355E-02
     0.016     0.606   0.616871E-02
     0.016     0.614   0.597824E-02
     0.016     0.622   0.579226E-02
     0.016     0.630   0.561040E-02
     0.016     0.638   0.543277E-02
     0.016     0.646   0.525904E-02
     0.016     0.654   0.508932E-02
     0.016     0.661   0.492326E-02
     0.016     0.669   0.476098E-02
     0.016     0.677   0.460215E-02
     0.016     0.685   0.444688E-02
     0.016     0.693   0.429486E-02
     0.016     0.701   0.414617E-02
     0.016     0.709   0.400053E-02
     0.016     0.717   0.385803E-02
     0.016     0.724   0.371837E-02
     0.016     0.732   0.358165E-02
     0.016     0.740   0.344759E-02
     0.016     0.748   0.331627E-02
     0.016     0.756   0.318742E-02
     0.016     0.764   0.306112E-02
     0.016     0.772   0.293712E-02
     0.016     0.780   0.281548E-02
     0.016     0.787   0.269596E-02
     0.016     0.795   0.257863E-02
     0.016     0.803   0.246325E-02
     0.016     0.811   0.234987E-02
     0.016     0.819   0.223829E-02
     0.016     0.827   0.212853E-02
     0.016     0.835   0.202040E-02
     0.016     0.843   0.191393E-02
     0.016     0.850   0.180893E-02
     0.016     0.858   0.170543E-02
     0.016     0.866   0.160324E-02
     0.016     0.874   0.150237E-02
     0.016     0.882   0.140267E-02
     0.016     0.890   0.130414E-02
     0.016     0.898   0.120661E-02
     0.016     0.906   0.111010E-02
     0.016     0.913   0.101444E-02
     0.016     0.921   0.919641E-03
     0.016     0.929   0.825552E-03
     0.016     0.937   0.732158E-03
     0.016     0.945   0.639333E-03
     0.016     0.953   0.547048E-03
     0.016     0.961   0.455189E-03
     0.016     0.969   0.363714E-03
     0.016     0.976   0.272523E-03
     0.016     0.984   0.181562E-03
     0.016     0.992   0.907425E-04
     0.016     1.000    0.00000    
     0.024     0.000   0.741428E-01
     0.024     0.008   0.723010E-01
     0.024     0.016   0.705036E-01
     0.024     0.024   0.687493E-01
     0.024     0.031   0.670372E-01
     0.024     0.039   0.653663E-01
     0.024     0.047   0.637354E-01
     0.024     0.055   0.621438E-01
     0.024     0.063   0.605904E-01
     0.024     0.071   0.590742E-01
     0.024     0.079   0.575946E-01
     0.024     0.087   0.561503E-01
     0.024     0.094   0.547409E-01
     0.024     0.102   0.533652E-01
     0.024     0.110   0.520226E-01
     0.024     0.118   0.507121E-01
     0.024     0.126   0.494332E-01
     0.024     0.134   0.481849E-01
     0.024     0.142   0.469667E-01
     0.024     0.150   0.457776E-01
     0.024     0.157   0.446171E-01
     0.024     0.165   0.434844E-01
     0.024     0.173   0.423790E-01
     0.024     0.181   0.413001E-01
     0.024     0.189   0.402471E-01
     0.024     0.197   0.392193E-01
     0.024     0.205   0.382163E-01
     0.024     0.213   0.372373E-01
     0.024     0.220   0.362819E-01
     0.024     0.228   0.353493E-01
     0.024     0.236   0.344393E-01
     0.024     0.244   0.335510E-01
     0.024     0.252   0.326841E-01
     0.024     0.260   0.318380E-01
     0.024     0.268   0.310123E-01
     0.024     0.276   0.302063E-01
     0.024     0.283   0.294199E-01
     0.024     0.291   0.286522E-01
     0.024     0.299   0.279031E-01
     0.024     0.307   0.271718E-01
     0.024     0.315   0.264583E-01
     0.024     0.323   0.257618E-01
     0.024     0.331   0.250823E-01
     0.024     0.339   0.244189E-01
     0.024     0.346   0.237716E-01
     0.024     0.354   0.231397E-01
     0.024     0.362   0.225232E-01
     0.024     0.370   0.219214E-01
     0.024     0.378   0.213342E-01
     0.024     0.386   0.207609E-01
     0.024     0.394   0.202016E-01
     0.024     0.402   0.196556E-01
     0.024     0.409   0.191229E-01
     0.024     0.417   0.186028E-01
     0.024     0.425   0.180954E-01
     0.024     0.433   0.176000E-01
     0.024     0.441   0.171167E-01
     0.024     0.449   0.166448E-01
     0.024     0.457   0.161844E-01
     0.024     0.465   0.157349E-01
     0.024     0.472   0.152963E-01
     0.024     0.480   0.148680E-01
     0.024     0.488   0.144502E-01
     0.024     0.496   0.140422E-01
     0.024     0.504   0.136440E-01
     0.024     0.512   0.132552E-01
     0.024     0.520   0.128758E-01
     0.024     0.528   0.125053E-01
     0.024     0.535   0.121437E-01
     0.024     0.543   0.117905E-01
     0.024     0.551   0.114458E-01
     0.024     0.559   0.111091E-01
     0.024     0.567   0.107804E-01
     0.024     0.575   0.104593E-01
     0.024     0.583   0.101459E-01
     0.024     0.591   0.983957E-02
     0.024     0.598   0.954055E-02
     0.024     0.606   0.924826E-02
     0.024     0.614   0.896288E-02
     0.024     0.622   0.868387E-02
     0.024     0.630   0.841139E-02
     0.024     0.638   0.814492E-02
     0.024     0.646   0.788462E-02
     0.024     0.654   0.763000E-02
     0.024     0.661   0.738120E-02
     0.024     0.669   0.713775E-02
     0.024     0.677   0.689979E-02
     0.024     0.685   0.666685E-02
     0.024     0.693   0.643908E-02
     0.024     0.701   0.621602E-02
     0.024     0.709   0.599781E-02
     0.024     0.717   0.578402E-02
     0.024     0.724   0.557479E-02
     0.024     0.732   0.536967E-02
     0.024     0.740   0.516882E-02
     0.024     0.748   0.497180E-02
     0.024     0.756   0.477875E-02
     0.024     0.764   0.458928E-02
     0.024     0.772   0.440349E-02
     0.024     0.780   0.422101E-02
     0.024     0.787   0.404194E-02
     0.024     0.795   0.386592E-02
     0.024     0.803   0.369304E-02
     0.024     0.811   0.352296E-02
     0.024     0.819   0.335577E-02
     0.024     0.827   0.319112E-02
     0.024     0.835   0.302910E-02
     0.024     0.843   0.286939E-02
     0.024     0.850   0.271206E-02
     0.024     0.858   0.255680E-02
     0.024     0.866   0.240366E-02
     0.024     0.874   0.225238E-02
     0.024     0.882   0.210297E-02
     0.024     0.890   0.195518E-02
     0.024     0.898   0.180903E-02
     0.024     0.906   0.166427E-02
     0.024     0.913   0.152091E-02
     0.024     0.921   0.137874E-02
     0.024     0.929   0.123772E-02
     0.024     0.937   0.109766E-02
     0.024     0.945   0.958527E-03
     0.024     0.953   0.820140E-03
     0.024     0.961   0.682446E-03
     0.024     0.969   0.545284E-03
     0.024     0.976   0.408582E-03
     0.024     0.984   0.272199E-03
     0.024     0.992   0.136047E-03
     0.024     1.000    0.00000    
     0.031     0.000   0.987864E-01
     0.031     0.008   0.963325E-01
     0.031     0.016   0.939376E-01
     0.031     0.024   0.916003E-01
     0.031     0.031   0.893191E-01
     0.031     0.039   0.870928E-01
     0.031     0.047   0.849199E-01
     0.031     0.055   0.827992E-01
     0.031     0.063   0.807295E-01
     0.031     0.071   0.787094E-01
     0.031     0.079   0.767379E-01
     0.031     0.087   0.748137E-01
     0.031     0.094   0.729357E-01
     0.031     0.102   0.711028E-01
     0.031     0.110   0.693138E-01
     0.031     0.118   0.675679E-01
     0.031     0.126   0.658638E-01
     0.031     0.134   0.642007E-01
     0.031     0.142   0.625774E-01
     0.031     0.150   0.609932E-01
     0.031     0.157   0.594470E-01
     0.031     0.165   0.579379E-01
     0.031     0.173   0.564649E-01
     0.031     0.181   0.550275E-01
     0.031     0.189   0.536244E-01
     0.031     0.197   0.522551E-01
     0.031     0.205   0.509186E-01
     0.031     0.213   0.496143E-01
     0.031     0.220   0.483412E-01
     0.031     0.228   0.470989E-01
     0.031     0.236   0.458862E-01
     0.031     0.244   0.447028E-01
     0.031     0.252   0.435476E-01
     0.031     0.260   0.424204E-01
     0.031     0.268   0.413201E-01
     0.031     0.276   0.402464E-01
     0.031     0.283   0.391984E-01
     0.031     0.291   0.381757E-01
     0.031     0.299   0.371774E-01
     0.031     0.307   0.362033E-01
     0.031     0.315   0.352525E-01
     0.031     0.323   0.343247E-01
     0.031     0.331   0.334190E-01
     0.031     0.339   0.325353E-01
     0.031     0.346   0.316727E-01
     0.031     0.354   0.308310E-01
     0.031     0.362   0.300094E-01
     0.031     0.370   0.292077E-01
     0.031     0.378   0.284251E-01
     0.031     0.386   0.276616E-01
     0.031     0.394   0.269162E-01
     0.031     0.402   0.261889E-01
     0.031     0.409   0.254789E-01
     0.031     0.417   0.247862E-01
     0.031     0.425   0.241099E-01
     0.031     0.433   0.234501E-01
     0.031     0.441   0.228059E-01
     0.031     0.449   0.221774E-01
     0.031     0.457   0.215637E-01
     0.031     0.465   0.209650E-01
     0.031     0.472   0.203804E-01
     0.031     0.480   0.198100E-01
     0.031     0.488   0.192531E-01
     0.031     0.496   0.187096E-01
     0.031     0.504   0.181789E-01
     0.031     0.512   0.176611E-01
     0.031     0.520   0.171554E-01
     0.031     0.528   0.166619E-01
     0.031     0.535   0.161799E-01
     0.031     0.543   0.157095E-01
     0.031     0.551   0.152501E-01
     0.031     0.559   0.148016E-01
     0.031     0.567   0.143635E-01
     0.031     0.575   0.139359E-01
     0.031     0.583   0.135181E-01
     0.031     0.591   0.131102E-01
     0.031     0.598   0.127115E-01
     0.031     0.606   0.123223E-01
     0.031     0.614   0.119419E-01
     0.031     0.622   0.115703E-01
     0.031     0.630   0.112071E-01
     0.031     0.638   0.108522E-01
     0.031     0.646   0.105052E-01
     0.031     0.654   0.101662E-01
     0.031     0.661   0.983447E-02
     0.031     0.669   0.951031E-02
     0.031     0.677   0.919304E-02
     0.031     0.685   0.888288E-02
     0.031     0.693   0.857920E-02
     0.031     0.701   0.828220E-02
     0.031     0.709   0.799128E-02
     0.031     0.717   0.770662E-02
     0.031     0.724   0.742765E-02
     0.031     0.732   0.715454E-02
     0.031     0.740   0.688674E-02
     0.031     0.748   0.662442E-02
     0.031     0.756   0.636704E-02
     0.031     0.764   0.611475E-02
     0.031     0.772   0.586705E-02
     0.031     0.780   0.562407E-02
     0.031     0.787   0.538533E-02
     0.031     0.795   0.515095E-02
     0.031     0.803   0.492047E-02
     0.031     0.811   0.469400E-02
     0.031     0.819   0.447109E-02
     0.031     0.827   0.425185E-02
     0.031     0.835   0.403586E-02
     0.031     0.843   0.382319E-02
     0.031     0.850   0.361344E-02
     0.031     0.858   0.340669E-02
     0.031     0.866   0.320255E-02
     0.031     0.874   0.300107E-02
     0.031     0.882   0.280191E-02
     0.031     0.890   0.260509E-02
     0.031     0.898   0.241027E-02
     0.031     0.906   0.221748E-02
     0.031     0.913   0.202641E-02
     0.031     0.921   0.183703E-02
     0.031     0.929   0.164908E-02
     0.031     0.937   0.146252E-02
     0.031     0.945   0.127710E-02
     0.031     0.953   0.109276E-02
     0.031     0.961   0.909263E-03
     0.031     0.969   0.726538E-03
     0.031     0.976   0.544378E-03
     0.031     0.984   0.362679E-03
     0.031     0.992   0.181263E-03
     0.031     1.000    0.00000    
     0.039     0.000   0.123370    
     0.039     0.008   0.120305    
     0.039     0.016   0.117314    
     0.039     0.024   0.114395    
     0.039     0.031   0.111546    
     0.039     0.039   0.108766    
     0.039     0.047   0.106052    
     0.039     0.055   0.103404    
     0.039     0.063   0.100819    
     0.039     0.071   0.982964E-01
     0.039     0.079   0.958343E-01
     0.039     0.087   0.934312E-01
     0.039     0.094   0.910859E-01
     0.039     0.102   0.887968E-01
     0.039     0.110   0.865628E-01
     0.039     0.118   0.843823E-01
     0.039     0.126   0.822542E-01
     0.039     0.134   0.801772E-01
     0.039     0.142   0.781501E-01
     0.039     0.150   0.761715E-01
     0.039     0.157   0.742405E-01
     0.039     0.165   0.723558E-01
     0.039     0.173   0.705165E-01
     0.039     0.181   0.687211E-01
     0.039     0.189   0.669690E-01
     0.039     0.197   0.652589E-01
     0.039     0.205   0.635899E-01
     0.039     0.213   0.619609E-01
     0.039     0.220   0.603712E-01
     0.039     0.228   0.588194E-01
     0.039     0.236   0.573051E-01
     0.039     0.244   0.558270E-01
     0.039     0.252   0.543846E-01
     0.039     0.260   0.529767E-01
     0.039     0.268   0.516028E-01
     0.039     0.276   0.502617E-01
     0.039     0.283   0.489531E-01
     0.039     0.291   0.476757E-01
     0.039     0.299   0.464292E-01
     0.039     0.307   0.452125E-01
     0.039     0.315   0.440253E-01
     0.039     0.323   0.428663E-01
     0.039     0.331   0.417356E-01
     0.039     0.339   0.406317E-01
     0.039     0.346   0.395547E-01
     0.039     0.354   0.385033E-01
     0.039     0.362   0.374774E-01
     0.039     0.370   0.364760E-01
     0.039     0.378   0.354989E-01
     0.039     0.386   0.345451E-01
     0.039     0.394   0.336145E-01
     0.039     0.402   0.327059E-01
     0.039     0.409   0.318195E-01
     0.039     0.417   0.309541E-01
     0.039     0.425   0.301099E-01
     0.039     0.433   0.292856E-01
     0.039     0.441   0.284813E-01
     0.039     0.449   0.276961E-01
     0.039     0.457   0.269301E-01
     0.039     0.465   0.261820E-01
     0.039     0.472   0.254523E-01
     0.039     0.480   0.247396E-01
     0.039     0.488   0.240444E-01
     0.039     0.496   0.233654E-01
     0.039     0.504   0.227029E-01
     0.039     0.512   0.220560E-01
     0.039     0.520   0.214247E-01
     0.039     0.528   0.208081E-01
     0.039     0.535   0.202065E-01
     0.039     0.543   0.196187E-01
     0.039     0.551   0.190452E-01
     0.039     0.559   0.184849E-01
     0.039     0.567   0.179381E-01
     0.039     0.575   0.174037E-01
     0.039     0.583   0.168822E-01
     0.039     0.591   0.163725E-01
     0.039     0.598   0.158750E-01
     0.039     0.606   0.153886E-01
     0.039     0.614   0.149138E-01
     0.039     0.622   0.144495E-01
     0.039     0.630   0.139961E-01
     0.039     0.638   0.135527E-01
     0.039     0.646   0.131196E-01
     0.039     0.654   0.126959E-01
     0.039     0.661   0.122819E-01
     0.039     0.669   0.118768E-01
     0.039     0.677   0.114809E-01
     0.039     0.685   0.110933E-01
     0.039     0.693   0.107143E-01
     0.039     0.701   0.103431E-01
     0.039     0.709   0.998005E-02
     0.039     0.717   0.962431E-02
     0.039     0.724   0.927615E-02
     0.039     0.732   0.893485E-02
     0.039     0.740   0.860064E-02
     0.039     0.748   0.827282E-02
     0.039     0.756   0.795160E-02
     0.039     0.764   0.763632E-02
     0.039     0.772   0.732718E-02
     0.039     0.780   0.702354E-02
     0.039     0.787   0.672557E-02
     0.039     0.795   0.643269E-02
     0.039     0.803   0.614503E-02
     0.039     0.811   0.586203E-02
     0.039     0.819   0.558382E-02
     0.039     0.827   0.530986E-02
     0.039     0.835   0.504026E-02
     0.039     0.843   0.477452E-02
     0.039     0.850   0.451272E-02
     0.039     0.858   0.425438E-02
     0.039     0.866   0.399957E-02
     0.039     0.874   0.374784E-02
     0.039     0.882   0.349923E-02
     0.039     0.890   0.325332E-02
     0.039     0.898   0.301012E-02
     0.039     0.906   0.276926E-02
     0.039     0.913   0.253072E-02
     0.039     0.921   0.229414E-02
     0.039     0.929   0.205950E-02
     0.039     0.937   0.182645E-02
     0.039     0.945   0.159494E-02
     0.039     0.953   0.136467E-02
     0.039     0.961   0.113555E-02
     0.039     0.969   0.907323E-03
     0.039     0.976   0.679859E-03
     0.039     0.984   0.452925E-03
     0.039     0.992   0.226374E-03
     0.039     1.000    0.00000    
     0.047     0.000   0.147877    
     0.047     0.008   0.144204    
     0.047     0.016   0.140619    
     0.047     0.024   0.137120    
     0.047     0.031   0.133705    
     0.047     0.039   0.130373    
     0.047     0.047   0.127120    
     0.047     0.055   0.123946    
     0.047     0.063   0.120847    
     0.047     0.071   0.117823    
     0.047     0.079   0.114872    
     0.047     0.087   0.111992    
     0.047     0.094   0.109180    
     0.047     0.102   0.106437    
     0.047     0.110   0.103759    
     0.047     0.118   0.101145    
     0.047     0.126   0.985942E-01
     0.047     0.134   0.961047E-01
     0.047     0.142   0.936747E-01
     0.047     0.150   0.913032E-01
     0.047     0.157   0.889885E-01
     0.047     0.165   0.867296E-01
     0.047     0.173   0.845247E-01
     0.047     0.181   0.823729E-01
     0.047     0.189   0.802725E-01
     0.047     0.197   0.782228E-01
     0.047     0.205   0.762221E-01
     0.047     0.213   0.742697E-01
     0.047     0.220   0.723639E-01
     0.047     0.228   0.705042E-01
     0.047     0.236   0.686888E-01
     0.047     0.244   0.669174E-01
     0.047     0.252   0.651882E-01
     0.047     0.260   0.635008E-01
     0.047     0.268   0.618537E-01
     0.047     0.276   0.602465E-01
     0.047     0.283   0.586776E-01
     0.047     0.291   0.571467E-01
     0.047     0.299   0.556524E-01
     0.047     0.307   0.541942E-01
     0.047     0.315   0.527709E-01
     0.047     0.323   0.513820E-01
     0.047     0.331   0.500263E-01
     0.047     0.339   0.487035E-01
     0.047     0.346   0.474121E-01
     0.047     0.354   0.461522E-01
     0.047     0.362   0.449223E-01
     0.047     0.370   0.437222E-01
     0.047     0.378   0.425507E-01
     0.047     0.386   0.414077E-01
     0.047     0.394   0.402919E-01
     0.047     0.402   0.392032E-01
     0.047     0.409   0.381404E-01
     0.047     0.417   0.371035E-01
     0.047     0.425   0.360911E-01
     0.047     0.433   0.351034E-01
     0.047     0.441   0.341391E-01
     0.047     0.449   0.331982E-01
     0.047     0.457   0.322796E-01
     0.047     0.465   0.313834E-01
     0.047     0.472   0.305082E-01
     0.047     0.480   0.296544E-01
     0.047     0.488   0.288207E-01