Title="Temperature Data"
Variables="X","Y","T"
 
Zone I=   128, J=   128, F=POINT
     0.000     0.000    0.00000    
     0.000     0.008    0.00000    
     0.000     0.016    0.00000    
     0.000     0.024    0.00000    
     0.000     0.031    0.00000    
     0.000     0.039    0.00000    
     0.000     0.047    0.00000    
     0.000     0.055    0.00000    
     0.000     0.063    0.00000    
     0.000     0.071    0.00000    
     0.000     0.079    0.00000    
     0.000     0.087    0.00000    
     0.000     0.094    0.00000    
     0.000     0.102    0.00000    
     0.000     0.110    0.00000    
     0.000     0.118    0.00000    
     0.000     0.126    0.00000    
     0.000     0.134    0.00000    
     0.000     0.142    0.00000    
     0.000     0.150    0.00000    
     0.000     0.157    0.00000    
     0.000     0.165    0.00000    
     0.000     0.173    0.00000    
     0.000     0.181    0.00000    
     0.000     0.189    0.00000    
     0.000     0.197    0.00000    
     0.000     0.205    0.00000    
     0.000     0.213    0.00000    
     0.000     0.220    0.00000    
     0.000     0.228    0.00000    
     0.000     0.236    0.00000    
     0.000     0.244    0.00000    
     0.000     0.252    0.00000    
     0.000     0.260    0.00000    
     0.000     0.268    0.00000    
     0.000     0.276    0.00000    
     0.000     0.283    0.00000    
     0.000     0.291    0.00000    
     0.000     0.299    0.00000    
     0.000     0.307    0.00000    
     0.000     0.315    0.00000    
     0.000     0.323    0.00000    
     0.000     0.331    0.00000    
     0.000     0.339    0.00000    
     0.000     0.346    0.00000    
     0.000     0.354    0.00000    
     0.000     0.362    0.00000    
     0.000     0.370    0.00000    
     0.000     0.378    0.00000    
     0.000     0.386    0.00000    
     0.000     0.394    0.00000    
     0.000     0.402    0.00000    
     0.000     0.409    0.00000    
     0.000     0.417    0.00000    
     0.000     0.425    0.00000    
     0.000     0.433    0.00000    
     0.000     0.441    0.00000    
     0.000     0.449    0.00000    
     0.000     0.457    0.00000    
     0.000     0.465    0.00000    
     0.000     0.472    0.00000    
     0.000     0.480    0.00000    
     0.000     0.488    0.00000    
     0.000     0.496    0.00000    
     0.000     0.504    0.00000    
     0.000     0.512    0.00000    
     0.000     0.520    0.00000    
     0.000     0.528    0.00000    
     0.000     0.535    0.00000    
     0.000     0.543    0.00000    
     0.000     0.551    0.00000    
     0.000     0.559    0.00000    
     0.000     0.567    0.00000    
     0.000     0.575    0.00000    
     0.000     0.583    0.00000    
     0.000     0.591    0.00000    
     0.000     0.598    0.00000    
     0.000     0.606    0.00000    
     0.000     0.614    0.00000    
     0.000     0.622    0.00000    
     0.000     0.630    0.00000    
     0.000     0.638    0.00000    
     0.000     0.646    0.00000    
     0.000     0.654    0.00000    
     0.000     0.661    0.00000    
     0.000     0.669    0.00000    
     0.000     0.677    0.00000    
     0.000     0.685    0.00000    
     0.000     0.693    0.00000    
     0.000     0.701    0.00000    
     0.000     0.709    0.00000    
     0.000     0.717    0.00000    
     0.000     0.724    0.00000    
     0.000     0.732    0.00000    
     0.000     0.740    0.00000    
     0.000     0.748    0.00000    
     0.000     0.756    0.00000    
     0.000     0.764    0.00000    
     0.000     0.772    0.00000    
     0.000     0.780    0.00000    
     0.000     0.787    0.00000    
     0.000     0.795    0.00000    
     0.000     0.803    0.00000    
     0.000     0.811    0.00000    
     0.000     0.819    0.00000    
     0.000     0.827    0.00000    
     0.000     0.835    0.00000    
     0.000     0.843    0.00000    
     0.000     0.850    0.00000    
     0.000     0.858    0.00000    
     0.000     0.866    0.00000    
     0.000     0.874    0.00000    
     0.000     0.882    0.00000    
     0.000     0.890    0.00000    
     0.000     0.898    0.00000    
     0.000     0.906    0.00000    
     0.000     0.913    0.00000    
     0.000     0.921    0.00000    
     0.000     0.929    0.00000    
     0.000     0.937    0.00000    
     0.000     0.945    0.00000    
     0.000     0.953    0.00000    
     0.000     0.961    0.00000    
     0.000     0.969    0.00000    
     0.000     0.976    0.00000    
     0.000     0.984    0.00000    
     0.000     0.992    0.00000    
     0.000     1.000    0.00000    
     0.008     0.000   0.247344E-01
     0.008     0.008   0.238238E-01
     0.008     0.016   0.229288E-01
     0.008     0.024   0.220495E-01
     0.008     0.031   0.211869E-01
     0.008     0.039   0.203405E-01
     0.008     0.047   0.195119E-01
     0.008     0.055   0.186999E-01
     0.008     0.063   0.179068E-01
     0.008     0.071   0.171308E-01
     0.008     0.079   0.163745E-01
     0.008     0.087   0.156357E-01
     0.008     0.094   0.149176E-01
     0.008     0.102   0.142171E-01
     0.008     0.110   0.135380E-01
     0.008     0.118   0.128767E-01
     0.008     0.126   0.122374E-01
     0.008     0.134   0.116160E-01
     0.008     0.142   0.110168E-01
     0.008     0.150   0.104355E-01
     0.008     0.157   0.987668E-02
     0.008     0.165   0.933560E-02
     0.008     0.173   0.881688E-02
     0.008     0.181   0.831567E-02
     0.008     0.189   0.783660E-02
     0.008     0.197   0.737465E-02
     0.008     0.205   0.693445E-02
     0.008     0.213   0.651087E-02
     0.008     0.220   0.610848E-02
     0.008     0.228   0.572211E-02
     0.008     0.236   0.535622E-02
     0.008     0.244   0.500566E-02
     0.008     0.252   0.467473E-02
     0.008     0.260   0.435836E-02
     0.008     0.268   0.406067E-02
     0.008     0.276   0.377672E-02
     0.008     0.283   0.351039E-02
     0.008     0.291   0.325692E-02
     0.008     0.299   0.301998E-02
     0.008     0.307   0.279498E-02
     0.008     0.315   0.258533E-02
     0.008     0.323   0.238672E-02
     0.008     0.331   0.220228E-02
     0.008     0.339   0.202795E-02
     0.008     0.346   0.186659E-02
     0.008     0.354   0.171444E-02
     0.008     0.362   0.157408E-02
     0.008     0.370   0.144204E-02
     0.008     0.378   0.132065E-02
     0.008     0.386   0.120672E-02
     0.008     0.394   0.110233E-02
     0.008     0.402   0.100459E-02
     0.008     0.409   0.915335E-03
     0.008     0.417   0.831967E-03
     0.008     0.425   0.756102E-03
     0.008     0.433   0.685407E-03
     0.008     0.441   0.621292E-03
     0.008     0.449   0.561692E-03
     0.008     0.457   0.507824E-03
     0.008     0.465   0.457870E-03
     0.008     0.472   0.412876E-03
     0.008     0.480   0.371251E-03
     0.008     0.488   0.333888E-03
     0.008     0.496   0.299407E-03
     0.008     0.504   0.268563E-03
     0.008     0.512   0.240167E-03
     0.008     0.520   0.214854E-03
     0.008     0.528   0.191607E-03
     0.008     0.535   0.170956E-03
     0.008     0.543   0.152037E-03
     0.008     0.551   0.135288E-03
     0.008     0.559   0.119981E-03
     0.008     0.567   0.106477E-03
     0.008     0.575   0.941657E-04
     0.008     0.583   0.833424E-04
     0.008     0.591   0.734994E-04
     0.008     0.598   0.648759E-04
     0.008     0.606   0.570528E-04
     0.008     0.614   0.502227E-04
     0.008     0.622   0.440417E-04
     0.008     0.630   0.386641E-04
     0.008     0.638   0.338095E-04
     0.008     0.646   0.296006E-04
     0.008     0.654   0.258103E-04
     0.008     0.661   0.225357E-04
     0.008     0.669   0.195940E-04
     0.008     0.677   0.170613E-04
     0.008     0.685   0.147918E-04
     0.008     0.693   0.128446E-04
     0.008     0.701   0.111041E-04
     0.008     0.709   0.961590E-05
     0.008     0.717   0.828895E-05
     0.008     0.724   0.715838E-05
     0.008     0.732   0.615277E-05
     0.008     0.740   0.529896E-05
     0.008     0.748   0.454139E-05
     0.008     0.756   0.390042E-05
     0.008     0.764   0.333311E-05
     0.008     0.772   0.285479E-05
     0.008     0.780   0.243248E-05
     0.008     0.787   0.207765E-05
     0.008     0.795   0.176514E-05
     0.008     0.803   0.150348E-05
     0.008     0.811   0.127360E-05
     0.008     0.819   0.108179E-05
     0.008     0.827   0.913680E-06
     0.008     0.835   0.773895E-06
     0.008     0.843   0.651682E-06
     0.008     0.850   0.550400E-06
     0.008     0.858   0.462059E-06
     0.008     0.866   0.389086E-06
     0.008     0.874   0.325578E-06
     0.008     0.882   0.273273E-06
     0.008     0.890   0.227839E-06
     0.008     0.898   0.190510E-06
     0.008     0.906   0.158126E-06
     0.008     0.913   0.131548E-06
     0.008     0.921   0.108492E-06
     0.008     0.929   0.895389E-07
     0.008     0.937   0.730519E-07
     0.008     0.945   0.594045E-07
     0.008     0.953   0.474347E-07
     0.008     0.961   0.373526E-07
     0.008     0.969   0.283475E-07
     0.008     0.976   0.204913E-07
     0.008     0.984   0.132349E-07
     0.008     0.992   0.652126E-08
     0.008     1.000    0.00000    
     0.016     0.000   0.494537E-01
     0.016     0.008   0.476331E-01
     0.016     0.016   0.458433E-01
     0.016     0.024   0.440859E-01
     0.016     0.031   0.423603E-01
     0.016     0.039   0.406693E-01
     0.016     0.047   0.390110E-01
     0.016     0.055   0.373894E-01
     0.016     0.063   0.358015E-01
     0.016     0.071   0.342524E-01
     0.016     0.079   0.327376E-01
     0.016     0.087   0.312634E-01
     0.016     0.094   0.298243E-01
     0.016     0.102   0.284272E-01
     0.016     0.110   0.270657E-01
     0.016     0.118   0.257475E-01
     0.016     0.126   0.244652E-01
     0.016     0.134   0.232269E-01
     0.016     0.142   0.220246E-01
     0.016     0.150   0.208670E-01
     0.016     0.157   0.197450E-01
     0.016     0.165   0.186678E-01
     0.016     0.173   0.176260E-01
     0.016     0.181   0.166287E-01
     0.016     0.189   0.156660E-01
     0.016     0.197   0.147472E-01
     0.016     0.205   0.138622E-01
     0.016     0.213   0.130202E-01
     0.016     0.220   0.122108E-01
     0.016     0.228   0.114431E-01
     0.016     0.236   0.107068E-01
     0.016     0.244   0.100106E-01
     0.016     0.252   0.934429E-02
     0.016     0.260   0.871632E-02
     0.016     0.268   0.811664E-02
     0.016     0.276   0.755329E-02
     0.016     0.283   0.701652E-02
     0.016     0.291   0.651391E-02
     0.016     0.299   0.603611E-02
     0.016     0.307   0.559018E-02
     0.016     0.315   0.516722E-02
     0.016     0.323   0.477379E-02
     0.016     0.331   0.440149E-02
     0.016     0.339   0.405632E-02
     0.016     0.346   0.373046E-02
     0.016     0.354   0.342935E-02
     0.016     0.362   0.314575E-02
     0.016     0.370   0.288458E-02
     0.016     0.378   0.263918E-02
     0.016     0.386   0.241394E-02
     0.016     0.394   0.220280E-02
     0.016     0.402   0.200967E-02
     0.016     0.409   0.182906E-02
     0.016     0.417   0.166442E-02
     0.016     0.425   0.151081E-02
     0.016     0.433   0.137127E-02
     0.016     0.441   0.124139E-02
     0.016     0.449   0.112380E-02
     0.016     0.457   0.101463E-02
     0.016     0.465   0.916122E-03
     0.016     0.472   0.824883E-03
     0.016     0.480   0.742845E-03
     0.016     0.488   0.667043E-03
     0.016     0.496   0.599119E-03
     0.016     0.504   0.536510E-03
     0.016     0.512   0.480603E-03
     0.016     0.520   0.429195E-03
     0.016     0.528   0.383448E-03
     0.016     0.535   0.341486E-03
     0.016     0.543   0.304274E-03
     0.016     0.551   0.270224E-03
     0.016     0.559   0.240133E-03
     0.016     0.567   0.212666E-03
     0.016     0.575   0.188476E-03
     0.016     0.583   0.166450E-03
     0.016     0.591   0.147120E-03
     0.016     0.598   0.129562E-03
     0.016     0.606   0.114206E-03
     0.016     0.614   0.100293E-03
     0.016     0.622   0.881663E-04
     0.016     0.630   0.772059E-04
     0.016     0.638   0.676867E-04
     0.016     0.646   0.591039E-04
     0.016     0.654   0.516756E-04
     0.016     0.661   0.449945E-04
     0.016     0.669   0.392322E-04
     0.016     0.677   0.340622E-04
     0.016     0.685   0.296189E-04
     0.016     0.693   0.256421E-04
     0.016     0.701   0.222361E-04
     0.016     0.709   0.191952E-04
     0.016     0.717   0.165999E-04
     0.016     0.724   0.142886E-04
     0.016     0.732   0.123227E-04
     0.016     0.740   0.105763E-04
     0.016     0.748   0.909610E-05
     0.016     0.756   0.778438E-05
     0.016     0.764   0.667649E-05
     0.016     0.772   0.569711E-05
     0.016     0.780   0.487280E-05
     0.016     0.787   0.414592E-05
     0.016     0.795   0.353624E-05
     0.016     0.803   0.299995E-05
     0.016     0.811   0.255169E-05
     0.016     0.819   0.215836E-05
     0.016     0.827   0.183073E-05
     0.016     0.835   0.154394E-05
     0.016     0.843   0.130587E-05
     0.016     0.850   0.109797E-05
     0.016     0.858   0.925969E-06
     0.016     0.866   0.776111E-06
     0.016     0.874   0.652512E-06
     0.016     0.882   0.545053E-06
     0.016     0.890   0.456666E-06
     0.016     0.898   0.379948E-06
     0.016     0.906   0.316963E-06
     0.016     0.913   0.262336E-06
     0.016     0.921   0.217488E-06
     0.016     0.929   0.178546E-06
     0.016     0.937   0.146454E-06
     0.016     0.945   0.118448E-06
     0.016     0.953   0.951032E-07
     0.016     0.961   0.744739E-07
     0.016     0.969   0.568376E-07
     0.016     0.976   0.408540E-07
     0.016     0.984   0.265373E-07
     0.016     0.992   0.130013E-07
     0.016     1.000    0.00000    
     0.024     0.000   0.741428E-01
     0.024     0.008   0.714131E-01
     0.024     0.016   0.687304E-01
     0.024     0.024   0.660945E-01
     0.024     0.031   0.635089E-01
     0.024     0.039   0.609717E-01
     0.024     0.047   0.584880E-01
     0.024     0.055   0.560540E-01
     0.024     0.063   0.536767E-01
     0.024     0.071   0.513503E-01
     0.024     0.079   0.490835E-01
     0.024     0.087   0.468688E-01
     0.024     0.094   0.447161E-01
     0.024     0.102   0.426164E-01
     0.024     0.110   0.405807E-01
     0.024     0.118   0.385986E-01
     0.024     0.126   0.366821E-01
     0.024     0.134   0.348194E-01
     0.024     0.142   0.330234E-01
     0.024     0.150   0.312811E-01
     0.024     0.157   0.296059E-01
     0.024     0.165   0.279840E-01
     0.024     0.173   0.264291E-01
     0.024     0.181   0.249267E-01
     0.024     0.189   0.234906E-01
     0.024     0.197   0.221059E-01
     0.024     0.205   0.207864E-01
     0.024     0.213   0.195167E-01
     0.024     0.220   0.183105E-01
     0.024     0.228   0.171523E-01
     0.024     0.236   0.160556E-01
     0.024     0.244   0.150047E-01
     0.024     0.252   0.140127E-01
     0.024     0.260   0.130644E-01
     0.024     0.268   0.121721E-01
     0.024     0.276   0.113209E-01
     0.024     0.283   0.105226E-01
     0.024     0.291   0.976280E-02
     0.024     0.299   0.905254E-02
     0.024     0.307   0.837809E-02
     0.024     0.315   0.774968E-02
     0.024     0.323   0.715433E-02
     0.024     0.331   0.660146E-02
     0.024     0.339   0.607889E-02
     0.024     0.346   0.559522E-02
     0.024     0.354   0.513912E-02
     0.024     0.362   0.471840E-02
     0.024     0.370   0.432260E-02
     0.024     0.378   0.395871E-02
     0.024     0.386   0.361720E-02
     0.024     0.394   0.330428E-02
     0.024     0.402   0.301130E-02
     0.024     0.409   0.274376E-02
     0.024     0.417   0.249387E-02
     0.024     0.425   0.226645E-02
     0.024     0.433   0.205454E-02
     0.024     0.441   0.186236E-02
     0.024     0.449   0.168370E-02
     0.024     0.457   0.152223E-02
     0.024     0.465   0.137249E-02
     0.024     0.472   0.123762E-02
     0.024     0.480   0.111284E-02
     0.024     0.488   0.100085E-02
     0.024     0.496   0.897487E-03
     0.024     0.504   0.805031E-03
     0.024     0.512   0.719914E-03
     0.024     0.520   0.644037E-03
     0.024     0.528   0.574354E-03
     0.024     0.535   0.512450E-03
     0.024     0.543   0.455738E-03
     0.024     0.551   0.405532E-03
     0.024     0.559   0.359648E-03
     0.024     0.567   0.319170E-03
     0.024     0.575   0.282267E-03
     0.024     0.583   0.249823E-03
     0.024     0.591   0.220318E-03
     0.024     0.598   0.194469E-03
     0.024     0.606   0.171019E-03
     0.024     0.614   0.150545E-03
     0.024     0.622   0.132017E-03
     0.024     0.630   0.115898E-03
     0.024     0.638   0.101346E-03
     0.024     0.646   0.887292E-04
     0.024     0.654   0.773678E-04
     0.024     0.661   0.675518E-04
     0.024     0.669   0.587340E-04
     0.024     0.677   0.511422E-04
     0.024     0.685   0.443392E-04
     0.024     0.693   0.385024E-04
     0.024     0.701   0.332850E-04
     0.024     0.709   0.288242E-04
     0.024     0.717   0.248466E-04
     0.024     0.724   0.214576E-04
     0.024     0.732   0.184432E-04
     0.024     0.740   0.158839E-04
     0.024     0.748   0.136131E-04
     0.024     0.756   0.116917E-04
     0.024     0.764   0.999118E-05
     0.024     0.772   0.855739E-05
     0.024     0.780   0.729148E-05
     0.024     0.787   0.622786E-05
     0.024     0.795   0.529111E-05
     0.024     0.803   0.450677E-05
     0.024     0.811   0.381768E-05
     0.024     0.819   0.324271E-05
     0.024     0.827   0.273881E-05
     0.024     0.835   0.231979E-05
     0.024     0.843   0.195345E-05
     0.024     0.850   0.164985E-05
     0.024     0.858   0.138505E-05
     0.024     0.866   0.116631E-05
     0.024     0.874   0.975937E-06
     0.024     0.882   0.819150E-06
     0.024     0.890   0.682961E-06
     0.024     0.898   0.571063E-06
     0.024     0.906   0.473992E-06
     0.024     0.913   0.394323E-06
     0.024     0.921   0.325209E-06
     0.024     0.929   0.268398E-06
     0.024     0.937   0.218977E-06
     0.024     0.945   0.178068E-06
     0.024     0.953   0.142188E-06
     0.024     0.961   0.111966E-06
     0.024     0.969   0.849731E-07
     0.024     0.976   0.614237E-07
     0.024     0.984   0.396724E-07
     0.024     0.992   0.195478E-07
     0.024     1.000    0.00000    
     0.031     0.000   0.987864E-01
     0.031     0.008   0.951497E-01
     0.031     0.016   0.915744E-01
     0.031     0.024   0.880640E-01
     0.031     0.031   0.846169E-01
     0.031     0.039   0.812390E-01
     0.031     0.047   0.779264E-01
     0.031     0.055   0.746874E-01
     0.031     0.063   0.715154E-01
     0.031     0.071   0.684209E-01
     0.031     0.079   0.653951E-01
     0.031     0.087   0.624503E-01
     0.031     0.094   0.595756E-01
     0.031     0.102   0.567849E-01
     0.031     0.110   0.540653E-01
     0.031     0.118   0.514321E-01
     0.031     0.126   0.488704E-01
     0.031     0.134   0.463970E-01
     0.031     0.142   0.439953E-01
     0.031     0.150   0.416828E-01
     0.031     0.157   0.394417E-01
     0.031     0.165   0.372900E-01
     0.031     0.173   0.352088E-01
     0.031     0.181   0.332166E-01
     0.031     0.189   0.312936E-01
     0.031     0.197   0.294584E-01
     0.031     0.205   0.276905E-01
     0.031     0.213   0.260085E-01
     0.031     0.220   0.243917E-01
     0.031     0.228   0.228582E-01
     0.031     0.236   0.213874E-01
     0.031     0.244   0.199967E-01
     0.031     0.252   0.186657E-01
     0.031     0.260   0.174113E-01
     0.031     0.268   0.162134E-01
     0.031     0.276   0.150881E-01
     0.031     0.283   0.140159E-01
     0.031     0.291   0.130119E-01
     0.031     0.299   0.120574E-01
     0.031     0.307   0.111667E-01
     0.031     0.315   0.103218E-01
     0.031     0.323   0.953589E-02
     0.031     0.331   0.879220E-02
     0.031     0.339   0.810271E-02
     0.031     0.346   0.745178E-02
     0.031     0.354   0.685031E-02
     0.031     0.362   0.628381E-02
     0.031     0.370   0.576211E-02
     0.031     0.378   0.527189E-02
     0.031     0.386   0.482197E-02
     0.031     0.394   0.440021E-02
     0.031     0.402   0.401442E-02
     0.031     0.409   0.365364E-02
     0.031     0.417   0.332476E-02
     0.031     0.425   0.301792E-02
     0.031     0.433   0.273918E-02
     0.031     0.441   0.247974E-02
     0.031     0.449   0.224485E-02
     0.031     0.457   0.202677E-02
     0.031     0.465   0.183000E-02
     0.031     0.472   0.164775E-02
     0.031     0.480   0.148387E-02
     0.031     0.488   0.133245E-02
     0.031     0.496   0.119677E-02
     0.031     0.504   0.107171E-02
     0.031     0.512   0.960029E-03
     0.031     0.520   0.857340E-03
     0.031     0.528   0.765959E-03
     0.031     0.535   0.682137E-03
     0.031     0.543   0.607804E-03
     0.031     0.551   0.539787E-03
     0.031     0.559   0.479678E-03
     0.031     0.567   0.424811E-03
     0.031     0.575   0.376491E-03
     0.031     0.583   0.332493E-03
     0.031     0.591   0.293880E-03
     0.031     0.598   0.258807E-03
     0.031     0.606   0.228133E-03
     0.031     0.614   0.200340E-03
     0.031     0.622   0.176117E-03
     0.031     0.630   0.154223E-03
     0.031     0.638   0.135208E-03
     0.031     0.646   0.118063E-03
     0.031     0.654   0.103225E-03
     0.031     0.661   0.898788E-04
     0.031     0.669   0.783683E-04
     0.031     0.677   0.680411E-04
     0.031     0.685   0.591652E-04
     0.031     0.693   0.512214E-04
     0.031     0.701   0.444177E-04
     0.031     0.709   0.383435E-04
     0.031     0.717   0.331592E-04
     0.031     0.724   0.285422E-04
     0.031     0.732   0.246153E-04
     0.031     0.740   0.211267E-04
     0.031     0.748   0.181699E-04
     0.031     0.756   0.155497E-04
     0.031     0.764   0.133366E-04
     0.031     0.772   0.113803E-04
     0.031     0.780   0.973368E-05
     0.031     0.787   0.828168E-05
     0.031     0.795   0.706383E-05
     0.031     0.803   0.599255E-05
     0.031     0.811   0.509714E-05
     0.031     0.819   0.431143E-05
     0.031     0.827   0.365697E-05
     0.031     0.835   0.308410E-05
     0.031     0.843   0.260854E-05
     0.031     0.850   0.219326E-05
     0.031     0.858   0.184967E-05
     0.031     0.866   0.155032E-05
     0.031     0.874   0.130343E-05
     0.031     0.882   0.108877E-05
     0.031     0.890   0.912214E-06
     0.031     0.898   0.758966E-06
     0.031     0.906   0.633150E-06
     0.031     0.913   0.524030E-06
     0.031     0.921   0.434443E-06
     0.031     0.929   0.356656E-06
     0.031     0.937   0.292550E-06
     0.031     0.945   0.236606E-06
     0.031     0.953   0.189974E-06
     0.031     0.961   0.148766E-06
     0.031     0.969   0.113536E-06
     0.031     0.976   0.816079E-07
     0.031     0.984   0.530097E-07
     0.031     0.992   0.259707E-07
     0.031     1.000    0.00000    
     0.039     0.000   0.123370    
     0.039     0.008   0.118828    
     0.039     0.016   0.114364    
     0.039     0.024   0.109978    
     0.039     0.031   0.105676    
     0.039     0.039   0.101454    
     0.039     0.047   0.973209E-01
     0.039     0.055   0.932709E-01
     0.039     0.063   0.893151E-01
     0.039     0.071   0.854443E-01
     0.039     0.079   0.816724E-01
     0.039     0.087   0.779873E-01
     0.039     0.094   0.744053E-01
     0.039     0.102   0.709115E-01
     0.039     0.110   0.675242E-01
     0.039     0.118   0.642261E-01
     0.039     0.126   0.610371E-01
     0.039     0.134   0.579377E-01
     0.039     0.142   0.549492E-01
     0.039     0.150   0.520501E-01
     0.039     0.157   0.492626E-01
     0.039     0.165   0.465638E-01
     0.039     0.173   0.439766E-01
     0.039     0.181   0.414766E-01
     0.039     0.189   0.390872E-01
     0.039     0.197   0.367831E-01
     0.039     0.205   0.345875E-01
     0.039     0.213   0.324747E-01
     0.039     0.220   0.304677E-01
     0.039     0.228   0.285406E-01
     0.039     0.236   0.267156E-01
     0.039     0.244   0.249671E-01
     0.039     0.252   0.233165E-01
     0.039     0.260   0.217385E-01
     0.039     0.268   0.202537E-01
     0.039     0.276   0.188374E-01
     0.039     0.283   0.175090E-01
     0.039     0.291   0.162448E-01
     0.039     0.299   0.150629E-01
     0.039     0.307   0.139407E-01
     0.039     0.315   0.128951E-01
     0.039     0.323   0.119044E-01
     0.039     0.331   0.109845E-01
     0.039     0.339   0.101149E-01
     0.039     0.346   0.931014E-02
     0.039     0.354   0.855123E-02
     0.039     0.362   0.785117E-02
     0.039     0.370   0.719257E-02
     0.039     0.378   0.658709E-02
     0.039     0.386   0.601882E-02
     0.039     0.394   0.549815E-02
     0.039     0.402   0.501064E-02
     0.039     0.409   0.456548E-02
     0.039     0.417   0.414966E-02
     0.039     0.425   0.377126E-02
     0.039     0.433   0.341865E-02
     0.039     0.441   0.309886E-02
     0.039     0.449   0.280159E-02
     0.039     0.457   0.253291E-02
     0.039     0.465   0.228375E-02
     0.039     0.472   0.205933E-02
     0.039     0.480   0.185171E-02
     0.039     0.488   0.166536E-02
     0.039     0.496   0.149337E-02
     0.039     0.504   0.133953E-02
     0.039     0.512   0.119790E-02
     0.039     0.520   0.107164E-02
     0.039     0.528   0.955694E-03
     0.039     0.535   0.852690E-03
     0.039     0.543   0.758324E-03
     0.039     0.551   0.674784E-03
     0.039     0.559   0.598436E-03
     0.039     0.567   0.531082E-03
     0.039     0.575   0.469677E-03
     0.039     0.583   0.415693E-03
     0.039     0.591   0.366598E-03
     0.039     0.598   0.323586E-03
     0.039     0.606   0.284566E-03
     0.039     0.614   0.250499E-03
     0.039     0.622   0.219670E-03
     0.039     0.630   0.192848E-03
     0.039     0.638   0.168634E-03
     0.039     0.646   0.147641E-03
     0.039     0.654   0.128736E-03
     0.039     0.661   0.112403E-03
     0.039     0.669   0.977303E-04
     0.039     0.677   0.850979E-04
     0.039     0.685   0.737781E-04
     0.039     0.693   0.640659E-04
     0.039     0.701   0.553845E-04
     0.039     0.709   0.479619E-04
     0.039     0.717   0.413434E-04
     0.039     0.724   0.357044E-04
     0.039     0.732   0.306886E-04
     0.039     0.740   0.264300E-04
     0.039     0.748   0.226514E-04
     0.039     0.756   0.194544E-04
     0.039     0.764   0.166248E-04
     0.039     0.772   0.142390E-04
     0.039     0.780   0.121326E-04
     0.039     0.787   0.103628E-04
     0.039     0.795   0.880412E-05
     0.039     0.803   0.749903E-05
     0.039     0.811   0.635242E-05
     0.039     0.819   0.539570E-05
     0.039     0.827   0.455723E-05
     0.039     0.835   0.386001E-05
     0.039     0.843   0.325044E-05
     0.039     0.850   0.274527E-05
     0.039     0.858   0.230465E-05
     0.039     0.866   0.194067E-05
     0.039     0.874   0.162391E-05
     0.039     0.882   0.136302E-05
     0.039     0.890   0.113641E-05
     0.039     0.898   0.950218E-06
     0.039     0.906   0.788698E-06
     0.039     0.913   0.656133E-06
     0.039     0.921   0.541131E-06
     0.039     0.929   0.446599E-06
     0.039     0.937   0.364366E-06
     0.039     0.945   0.296296E-06
     0.039     0.953   0.236594E-06
     0.039     0.961   0.186306E-06
     0.039     0.969   0.141391E-06
     0.039     0.976   0.102206E-06
     0.039     0.984   0.660127E-07
     0.039     0.992   0.325265E-07
     0.039     1.000    0.00000    
     0.047     0.000   0.147877    
     0.047     0.008   0.142433    
     0.047     0.016   0.137081    
     0.047     0.024   0.131827    
     0.047     0.031   0.126666    
     0.047     0.039   0.121610    
     0.047     0.047   0.116651    
     0.047     0.055   0.111803    
     0.047     0.063   0.107054    
     0.047     0.071   0.102422    
     0.047     0.079   0.978926E-01
     0.047     0.087   0.934844E-01
     0.047     0.094   0.891811E-01
     0.047     0.102   0.850036E-01
     0.047     0.110   0.809325E-01
     0.047     0.118   0.769907E-01
     0.047     0.126   0.731561E-01
     0.047     0.134   0.694536E-01
     0.047     0.142   0.658584E-01
     0.047     0.150   0.623967E-01
     0.047     0.157   0.590419E-01
     0.047     0.165   0.558209E-01
     0.047     0.173   0.527055E-01
     0.047     0.181   0.497233E-01
     0.047     0.189   0.468447E-01
     0.047     0.197   0.440974E-01
     0.047     0.205   0.414511E-01
     0.047     0.213   0.389332E-01
     0.047     0.220   0.365130E-01
     0.047     0.228   0.342174E-01
     0.047     0.236   0.320156E-01
     0.047     0.244   0.299339E-01
     0.047     0.252   0.279415E-01
     0.047     0.260   0.260637E-01
     0.047     0.268   0.242705E-01
     0.047     0.276   0.225860E-01
     0.047     0.283   0.209809E-01
     0.047     0.291   0.194780E-01
     0.047     0.299   0.180493E-01
     0.047     0.307   0.167158E-01
     0.047     0.315   0.154511E-01
     0.047     0.323   0.142747E-01
     0.047     0.331   0.131614E-01
     0.047     0.339   0.121293E-01
     0.047     0.346   0.111549E-01
     0.047     0.354   0.102545E-01
     0.047     0.362   0.940648E-02
     0.047     0.370   0.862553E-02
     0.047     0.378   0.789171E-02
     0.047     0.386   0.721821E-02
     0.047     0.394   0.658685E-02
     0.047     0.402   0.600935E-02
     0.047     0.409   0.546928E-02
     0.047     0.417   0.497696E-02
     0.047     0.425   0.451765E-02
     0.047     0.433   0.410038E-02
     0.047     0.441   0.371202E-02
     0.047     0.449   0.336041E-02
     0.047     0.457   0.303395E-02
     0.047     0.465   0.273940E-02
     0.047     0.472   0.246658E-02
     0.047     0.480   0.222127E-02
     0.047     0.488   0.199460E-02