Title="Temperature Data"
Variables="X","Y","T"
 
Zone I=   128, J=   128, F=POINT
     0.000     0.000   0.467902-309
     0.000     0.008    0.00000    
     0.000     0.016    0.00000    
     0.000     0.024   0.202567-321
     0.000     0.031   0.296439-322
     0.000     0.039    0.00000    
     0.000     0.047   0.467902-309
     0.000     0.055   0.467902-309
     0.000     0.063   0.467902-309
     0.000     0.071    0.00000    
     0.000     0.079   0.212200-313
     0.000     0.087    0.00000    
     0.000     0.094    0.00000    
     0.000     0.102   0.467902-309
     0.000     0.110    0.00000    
     0.000     0.118    0.00000    
     0.000     0.126    0.00000    
     0.000     0.134   0.467902-309
     0.000     0.142   0.424399-313
     0.000     0.150   0.467902-309
     0.000     0.157   0.467902-309
     0.000     0.165   0.636599-313
     0.000     0.173   0.212200-313
     0.000     0.181    0.00000    
     0.000     0.189   0.494066-323
     0.000     0.197    0.00000    
     0.000     0.205   0.212200-313
     0.000     0.213    0.00000    
     0.000     0.220   0.467902-309
     0.000     0.228   0.127320-312
     0.000     0.236   0.212200-313
     0.000     0.244    0.00000    
     0.000     0.252    0.00000    
     0.000     0.260    0.00000    
     0.000     0.268    0.00000    
     0.000     0.276    0.00000    
     0.000     0.283    0.00000    
     0.000     0.291    0.00000    
     0.000     0.299    0.00000    
     0.000     0.307    0.00000    
     0.000     0.315    0.00000    
     0.000     0.323    0.00000    
     0.000     0.331    0.00000    
     0.000     0.339    0.00000    
     0.000     0.346    0.00000    
     0.000     0.354    0.00000    
     0.000     0.362    0.00000    
     0.000     0.370    0.00000    
     0.000     0.378    0.00000    
     0.000     0.386    0.00000    
     0.000     0.394    0.00000    
     0.000     0.402    0.00000    
     0.000     0.409    0.00000    
     0.000     0.417    0.00000    
     0.000     0.425    0.00000    
     0.000     0.433    0.00000    
     0.000     0.441    0.00000    
     0.000     0.449    0.00000    
     0.000     0.457    0.00000    
     0.000     0.465    0.00000    
     0.000     0.472    0.00000    
     0.000     0.480    0.00000    
     0.000     0.488    0.00000    
     0.000     0.496    0.00000    
     0.000     0.504    0.00000    
     0.000     0.512    0.00000    
     0.000     0.520    0.00000    
     0.000     0.528    0.00000    
     0.000     0.535    0.00000    
     0.000     0.543    0.00000    
     0.000     0.551    0.00000    
     0.000     0.559    0.00000    
     0.000     0.567    0.00000    
     0.000     0.575    0.00000    
     0.000     0.583    0.00000    
     0.000     0.591    0.00000    
     0.000     0.598    0.00000    
     0.000     0.606    0.00000    
     0.000     0.614    0.00000    
     0.000     0.622    0.00000    
     0.000     0.630    0.00000    
     0.000     0.638    0.00000    
     0.000     0.646    0.00000    
     0.000     0.654    0.00000    
     0.000     0.661    0.00000    
     0.000     0.669    0.00000    
     0.000     0.677    0.00000    
     0.000     0.685    0.00000    
     0.000     0.693    0.00000    
     0.000     0.701    0.00000    
     0.000     0.709    0.00000    
     0.000     0.717    0.00000    
     0.000     0.724    0.00000    
     0.000     0.732    0.00000    
     0.000     0.740    0.00000    
     0.000     0.748    0.00000    
     0.000     0.756    0.00000    
     0.000     0.764    0.00000    
     0.000     0.772    0.00000    
     0.000     0.780    0.00000    
     0.000     0.787    0.00000    
     0.000     0.795    0.00000    
     0.000     0.803    0.00000    
     0.000     0.811    0.00000    
     0.000     0.819    0.00000    
     0.000     0.827    0.00000    
     0.000     0.835    0.00000    
     0.000     0.843    0.00000    
     0.000     0.850    0.00000    
     0.000     0.858    0.00000    
     0.000     0.866    0.00000    
     0.000     0.874    0.00000    
     0.000     0.882    0.00000    
     0.000     0.890    0.00000    
     0.000     0.898    0.00000    
     0.000     0.906    0.00000    
     0.000     0.913    0.00000    
     0.000     0.921    0.00000    
     0.000     0.929    0.00000    
     0.000     0.937    0.00000    
     0.000     0.945    0.00000    
     0.000     0.953    0.00000    
     0.000     0.961    0.00000    
     0.000     0.969    0.00000    
     0.000     0.976    0.00000    
     0.000     0.984    0.00000    
     0.000     0.992    0.00000    
     0.000     1.000    0.00000    
     0.008     0.000    0.00000    
     0.008     0.008   0.260750E-04
     0.008     0.016   0.463538E-04
     0.008     0.024   0.571659E-04
     0.008     0.031   0.580117E-04
     0.008     0.039   0.511460E-04
     0.008     0.047   0.401687E-04
     0.008     0.055   0.285022E-04
     0.008     0.063   0.184398E-04
     0.008     0.071   0.109487E-04
     0.008     0.079   0.599647E-05
     0.008     0.087   0.304184E-05
     0.008     0.094   0.143414E-05
     0.008     0.102   0.630345E-06
     0.008     0.110   0.258973E-06
     0.008     0.118   0.996935E-07
     0.008     0.126   0.360381E-07
     0.008     0.134   0.122576E-07
     0.008     0.142   0.393001E-08
     0.008     0.150   0.118975E-08
     0.008     0.157   0.340620E-09
     0.008     0.165   0.923554E-10
     0.008     0.173   0.237472E-10
     0.008     0.181   0.579772E-11
     0.008     0.189   0.134555E-11
     0.008     0.197   0.297168E-12
     0.008     0.205   0.625169E-13
     0.008     0.213   0.125397E-13
     0.008     0.220   0.240020E-14
     0.008     0.228   0.438756E-15
     0.008     0.236   0.766542E-16
     0.008     0.244   0.128081E-16
     0.008     0.252   0.204810E-17
     0.008     0.260   0.313609E-18
     0.008     0.268   0.460082E-19
     0.008     0.276   0.647009E-20
     0.008     0.283   0.872601E-21
     0.008     0.291   0.112911E-21
     0.008     0.299   0.140230E-22
     0.008     0.307   0.167219E-23
     0.008     0.315   0.191517E-24
     0.008     0.323   0.210733E-25
     0.008     0.331   0.222828E-26
     0.008     0.339   0.226475E-27
     0.008     0.346   0.221293E-28
     0.008     0.354   0.207914E-29
     0.008     0.362   0.187857E-30
     0.008     0.370   0.163249E-31
     0.008     0.378   0.136453E-32
     0.008     0.386   0.109712E-33
     0.008     0.394   0.848535E-35
     0.008     0.402   0.631296E-36
     0.008     0.409   0.451783E-37
     0.008     0.417   0.310983E-38
     0.008     0.425   0.205881E-39
     0.008     0.433   0.131075E-40
     0.008     0.441   0.802384E-42
     0.008     0.449   0.472206E-43
     0.008     0.457   0.267102E-44
     0.008     0.465   0.145184E-45
     0.008     0.472   0.758119E-47
     0.008     0.480   0.380191E-48
     0.008     0.488   0.183048E-49
     0.008     0.496   0.845787E-51
     0.008     0.504   0.374896E-52
     0.008     0.512   0.159336E-53
     0.008     0.520   0.649012E-55
     0.008     0.528   0.253213E-56
     0.008     0.535   0.945697E-58
     0.008     0.543   0.337883E-59
     0.008     0.551   0.115403E-60
     0.008     0.559   0.376500E-62
     0.008     0.567   0.117231E-63
     0.008     0.575   0.348053E-65
     0.008     0.583   0.984327E-67
     0.008     0.591   0.264877E-68
     0.008     0.598   0.677392E-70
     0.008     0.606   0.164421E-71
     0.008     0.614   0.378241E-73
     0.008     0.622   0.823366E-75
     0.008     0.630   0.169307E-76
     0.008     0.638   0.328232E-78
     0.008     0.646   0.598676E-80
     0.008     0.654   0.102490E-81
     0.008     0.661   0.164252E-83
     0.008     0.669   0.245693E-85
     0.008     0.677   0.341887E-87
     0.008     0.685   0.440899E-89
     0.008     0.693   0.524666E-91
     0.008     0.701   0.573255E-93
     0.008     0.709   0.571756E-95
     0.008     0.717   0.517008E-97
     0.008     0.724   0.420393E-99
     0.008     0.732   0.304348-101
     0.008     0.740   0.193774-103
     0.008     0.748   0.106818-105
     0.008     0.756   0.499462-108
     0.008     0.764   0.192613-110
     0.008     0.772   0.588183-113
     0.008     0.780   0.133351-115
     0.008     0.787   0.199539-118
     0.008     0.795   0.147813-121
     0.008     0.803    0.00000    
     0.008     0.811    0.00000    
     0.008     0.819    0.00000    
     0.008     0.827    0.00000    
     0.008     0.835    0.00000    
     0.008     0.843    0.00000    
     0.008     0.850    0.00000    
     0.008     0.858    0.00000    
     0.008     0.866    0.00000    
     0.008     0.874    0.00000    
     0.008     0.882    0.00000    
     0.008     0.890    0.00000    
     0.008     0.898    0.00000    
     0.008     0.906    0.00000    
     0.008     0.913    0.00000    
     0.008     0.921    0.00000    
     0.008     0.929    0.00000    
     0.008     0.937    0.00000    
     0.008     0.945    0.00000    
     0.008     0.953    0.00000    
     0.008     0.961    0.00000    
     0.008     0.969    0.00000    
     0.008     0.976    0.00000    
     0.008     0.984    0.00000    
     0.008     0.992    0.00000    
     0.008     1.000    0.00000    
     0.016     0.000    0.00000    
     0.016     0.008   0.521340E-04
     0.016     0.016   0.926792E-04
     0.016     0.024   0.114297E-03
     0.016     0.031   0.115988E-03
     0.016     0.039   0.102261E-03
     0.016     0.047   0.803129E-04
     0.016     0.055   0.569870E-04
     0.016     0.063   0.368682E-04
     0.016     0.071   0.218907E-04
     0.016     0.079   0.119893E-04
     0.016     0.087   0.608181E-05
     0.016     0.094   0.286741E-05
     0.016     0.102   0.126030E-05
     0.016     0.110   0.517788E-06
     0.016     0.118   0.199326E-06
     0.016     0.126   0.720542E-07
     0.016     0.134   0.245077E-07
     0.016     0.142   0.785762E-08
     0.016     0.150   0.237878E-08
     0.016     0.157   0.681032E-09
     0.016     0.165   0.184654E-09
     0.016     0.173   0.474798E-10
     0.016     0.181   0.115919E-10
     0.016     0.189   0.269027E-11
     0.016     0.197   0.594154E-12
     0.016     0.205   0.124996E-12
     0.016     0.213   0.250718E-13
     0.016     0.220   0.479894E-14
     0.016     0.228   0.877243E-15
     0.016     0.236   0.153261E-15
     0.016     0.244   0.256084E-16
     0.016     0.252   0.409495E-17
     0.016     0.260   0.627026E-18
     0.016     0.268   0.919882E-19
     0.016     0.276   0.129362E-19
     0.016     0.283   0.174467E-20
     0.016     0.291   0.225753E-21
     0.016     0.299   0.280375E-22
     0.016     0.307   0.334336E-23
     0.016     0.315   0.382918E-24
     0.016     0.323   0.421337E-25
     0.016     0.331   0.445520E-26
     0.016     0.339   0.452812E-27
     0.016     0.346   0.442450E-28
     0.016     0.354   0.415700E-29
     0.016     0.362   0.375600E-30
     0.016     0.370   0.326398E-31
     0.016     0.378   0.272823E-32
     0.016     0.386   0.219356E-33
     0.016     0.394   0.169655E-34
     0.016     0.402   0.126221E-35
     0.016     0.409   0.903290E-37
     0.016     0.417   0.621776E-38
     0.016     0.425   0.411636E-39
     0.016     0.433   0.262069E-40
     0.016     0.441   0.160428E-41
     0.016     0.449   0.944123E-43
     0.016     0.457   0.534041E-44
     0.016     0.465   0.290279E-45
     0.016     0.472   0.151577E-46
     0.016     0.480   0.760149E-48
     0.016     0.488   0.365983E-49
     0.016     0.496   0.169106E-50
     0.016     0.504   0.749563E-52
     0.016     0.512   0.318575E-53
     0.016     0.520   0.129763E-54
     0.016     0.528   0.506271E-56
     0.016     0.535   0.189082E-57
     0.016     0.543   0.675559E-59
     0.016     0.551   0.230735E-60
     0.016     0.559   0.752769E-62
     0.016     0.567   0.234390E-63
     0.016     0.575   0.695894E-65
     0.016     0.583   0.196805E-66
     0.016     0.591   0.529592E-68
     0.016     0.598   0.135437E-69
     0.016     0.606   0.328741E-71
     0.016     0.614   0.756251E-73
     0.016     0.622   0.164623E-74
     0.016     0.630   0.338510E-76
     0.016     0.638   0.656263E-78
     0.016     0.646   0.119698E-79
     0.016     0.654   0.204918E-81
     0.016     0.661   0.328403E-83
     0.016     0.669   0.491235E-85
     0.016     0.677   0.683564E-87
     0.016     0.685   0.881527E-89
     0.016     0.693   0.104901E-90
     0.016     0.701   0.114616E-92
     0.016     0.709   0.114316E-94
     0.016     0.717   0.103370E-96
     0.016     0.724   0.840528E-99
     0.016     0.732   0.608509-101
     0.016     0.740   0.387430-103
     0.016     0.748   0.213570-105
     0.016     0.756   0.998618-108
     0.016     0.764   0.385109-110
     0.016     0.772   0.117601-112
     0.016     0.780   0.266620-115
     0.016     0.787   0.398956-118
     0.016     0.795   0.295536-121
     0.016     0.803    0.00000    
     0.016     0.811    0.00000    
     0.016     0.819    0.00000    
     0.016     0.827    0.00000    
     0.016     0.835    0.00000    
     0.016     0.843    0.00000    
     0.016     0.850    0.00000    
     0.016     0.858    0.00000    
     0.016     0.866    0.00000    
     0.016     0.874    0.00000    
     0.016     0.882    0.00000    
     0.016     0.890    0.00000    
     0.016     0.898    0.00000    
     0.016     0.906    0.00000    
     0.016     0.913    0.00000    
     0.016     0.921    0.00000    
     0.016     0.929    0.00000    
     0.016     0.937    0.00000    
     0.016     0.945    0.00000    
     0.016     0.953    0.00000    
     0.016     0.961    0.00000    
     0.016     0.969    0.00000    
     0.016     0.976    0.00000    
     0.016     0.984    0.00000    
     0.016     0.992    0.00000    
     0.016     1.000    0.00000    
     0.024     0.000    0.00000    
     0.024     0.008   0.781612E-04
     0.024     0.016   0.138948E-03
     0.024     0.024   0.171358E-03
     0.024     0.031   0.173893E-03
     0.024     0.039   0.153313E-03
     0.024     0.047   0.120408E-03
     0.024     0.055   0.854368E-04
     0.024     0.063   0.552742E-04
     0.024     0.071   0.328194E-04
     0.024     0.079   0.179747E-04
     0.024     0.087   0.911806E-05
     0.024     0.094   0.429892E-05
     0.024     0.102   0.188949E-05
     0.024     0.110   0.776286E-06
     0.024     0.118   0.298837E-06
     0.024     0.126   0.108026E-06
     0.024     0.134   0.367429E-07
     0.024     0.142   0.117804E-07
     0.024     0.150   0.356634E-08
     0.024     0.157   0.102103E-08
     0.024     0.165   0.276840E-09
     0.024     0.173   0.711834E-10
     0.024     0.181   0.173790E-10
     0.024     0.189   0.403335E-11
     0.024     0.197   0.890776E-12
     0.024     0.205   0.187398E-12
     0.024     0.213   0.375885E-13
     0.024     0.220   0.719474E-14
     0.024     0.228   0.131519E-14
     0.024     0.236   0.229775E-15
     0.024     0.244   0.383931E-16
     0.024     0.252   0.613929E-17
     0.024     0.260   0.940059E-18
     0.024     0.268   0.137912E-18
     0.024     0.276   0.193944E-19
     0.024     0.283   0.261567E-20
     0.024     0.291   0.338457E-21
     0.024     0.299   0.420348E-22
     0.024     0.307   0.501249E-23
     0.024     0.315   0.574083E-24
     0.024     0.323   0.631683E-25
     0.024     0.331   0.667940E-26
     0.024     0.339   0.678871E-27
     0.024     0.346   0.663337E-28
     0.024     0.354   0.623232E-29
     0.024     0.362   0.563112E-30
     0.024     0.370   0.489347E-31
     0.024     0.378   0.409026E-32
     0.024     0.386   0.328867E-33
     0.024     0.394   0.254353E-34
     0.024     0.402   0.189234E-35
     0.024     0.409   0.135424E-36
     0.024     0.417   0.932189E-38
     0.024     0.425   0.617139E-39
     0.024     0.433   0.392903E-40
     0.024     0.441   0.240519E-41
     0.024     0.449   0.141546E-42
     0.024     0.457   0.800654E-44
     0.024     0.465   0.435197E-45
     0.024     0.472   0.227250E-46
     0.024     0.480   0.113964E-47
     0.024     0.488   0.548695E-49
     0.024     0.496   0.253529E-50
     0.024     0.504   0.112377E-51
     0.024     0.512   0.477619E-53
     0.024     0.520   0.194545E-54
     0.024     0.528   0.759019E-56
     0.024     0.535   0.283478E-57
     0.024     0.543   0.101282E-58
     0.024     0.551   0.345926E-60
     0.024     0.559   0.112858E-61
     0.024     0.567   0.351406E-63
     0.024     0.575   0.104331E-64
     0.024     0.583   0.295057E-66
     0.024     0.591   0.793983E-68
     0.024     0.598   0.203052E-69
     0.024     0.606   0.492859E-71
     0.024     0.614   0.113380E-72
     0.024     0.622   0.246808E-74
     0.024     0.630   0.507506E-76
     0.024     0.638   0.983893E-78
     0.024     0.646   0.179456E-79
     0.024     0.654   0.307220E-81
     0.024     0.661   0.492353E-83
     0.024     0.669   0.736476E-85
     0.024     0.677   0.102482E-86
     0.024     0.685   0.132162E-88
     0.024     0.693   0.157271E-90
     0.024     0.701   0.171836E-92
     0.024     0.709   0.171387E-94
     0.024     0.717   0.154976E-96
     0.024     0.724   0.126015E-98
     0.024     0.732   0.912298-101
     0.024     0.740   0.580849-103
     0.024     0.748   0.320191-105
     0.024     0.756   0.149716-107
     0.024     0.764   0.577369-110
     0.024     0.772   0.176311-112
     0.024     0.780   0.399726-115
     0.024     0.787   0.598129-118
     0.024     0.795   0.443077-121
     0.024     0.803    0.00000    
     0.024     0.811    0.00000    
     0.024     0.819    0.00000    
     0.024     0.827    0.00000    
     0.024     0.835    0.00000    
     0.024     0.843    0.00000    
     0.024     0.850    0.00000    
     0.024     0.858    0.00000    
     0.024     0.866    0.00000    
     0.024     0.874    0.00000    
     0.024     0.882    0.00000    
     0.024     0.890    0.00000    
     0.024     0.898    0.00000    
     0.024     0.906    0.00000    
     0.024     0.913    0.00000    
     0.024     0.921    0.00000    
     0.024     0.929    0.00000    
     0.024     0.937    0.00000    
     0.024     0.945    0.00000    
     0.024     0.953    0.00000    
     0.024     0.961    0.00000    
     0.024     0.969    0.00000    
     0.024     0.976    0.00000    
     0.024     0.984    0.00000    
     0.024     0.992    0.00000    
     0.024     1.000    0.00000    
     0.031     0.000    0.00000    
     0.031     0.008   0.104140E-03
     0.031     0.016   0.185132E-03
     0.031     0.024   0.228314E-03
     0.031     0.031   0.231692E-03
     0.031     0.039   0.204271E-03
     0.031     0.047   0.160429E-03
     0.031     0.055   0.113834E-03
     0.031     0.063   0.736463E-04
     0.031     0.071   0.437279E-04
     0.031     0.079   0.239492E-04
     0.031     0.087   0.121487E-04
     0.031     0.094   0.572780E-05
     0.031     0.102   0.251752E-05
     0.031     0.110   0.103431E-05
     0.031     0.118   0.398164E-06
     0.031     0.126   0.143932E-06
     0.031     0.134   0.489555E-07
     0.031     0.142   0.156960E-07
     0.031     0.150   0.475173E-08
     0.031     0.157   0.136040E-08
     0.031     0.165   0.368857E-09
     0.031     0.173   0.948434E-10
     0.031     0.181   0.231554E-10
     0.031     0.189   0.537396E-11
     0.031     0.197   0.118685E-11
     0.031     0.205   0.249685E-12
     0.031     0.213   0.500823E-13
     0.031     0.220   0.958613E-14
     0.031     0.228   0.175234E-14
     0.031     0.236   0.306148E-15
     0.031     0.244   0.511542E-16
     0.031     0.252   0.817988E-17
     0.031     0.260   0.125252E-17
     0.031     0.268   0.183751E-18
     0.031     0.276   0.258408E-19
     0.031     0.283   0.348507E-20
     0.031     0.291   0.450954E-21
     0.031     0.299   0.560064E-22
     0.031     0.307   0.667855E-23
     0.031     0.315   0.764898E-24
     0.031     0.323   0.841643E-25
     0.031     0.331   0.889951E-26
     0.031     0.339   0.904515E-27
     0.031     0.346   0.883818E-28
     0.031     0.354   0.830383E-29
     0.031     0.362   0.750280E-30
     0.031     0.370   0.651996E-31
     0.031     0.378   0.544978E-32
     0.031     0.386   0.438176E-33
     0.031     0.394   0.338895E-34
     0.031     0.402   0.252132E-35
     0.031     0.409   0.180437E-36
     0.031     0.417   0.124203E-37
     0.031     0.425   0.822265E-39
     0.031     0.433   0.523497E-40
     0.031     0.441   0.320463E-41
     0.031     0.449   0.188594E-42
     0.031     0.457   0.106678E-43
     0.031     0.465   0.579848E-45
     0.031     0.472   0.302784E-46
     0.031     0.480   0.151844E-47
     0.031     0.488   0.731071E-49
     0.031     0.496   0.337797E-50
     0.031     0.504   0.149729E-51
     0.031     0.512   0.636370E-53
     0.031     0.520   0.259208E-54
     0.031     0.528   0.101130E-55
     0.031     0.535   0.377700E-57
     0.031     0.543   0.134946E-58
     0.031     0.551   0.460905E-60
     0.031     0.559   0.150370E-61
     0.031     0.567   0.468206E-63
     0.031     0.575   0.139009E-64
     0.031     0.583   0.393129E-66
     0.031     0.591   0.105789E-67
     0.031     0.598   0.270542E-69
     0.031     0.606   0.656677E-71
     0.031     0.614   0.151065E-72
     0.031     0.622   0.328843E-74
     0.031     0.630   0.676191E-76
     0.031     0.638   0.131092E-77
     0.031     0.646   0.239104E-79
     0.031     0.654   0.409334E-81
     0.031     0.661   0.656002E-83
     0.031     0.669   0.981267E-85
     0.031     0.677   0.136546E-86
     0.031     0.685   0.176090E-88
     0.031     0.693   0.209545E-90
     0.031     0.701   0.228951E-92
     0.031     0.709   0.228353E-94
     0.031     0.717   0.206487E-96
     0.031     0.724   0.167900E-98
     0.031     0.732   0.121553-100
     0.031     0.740   0.773912-103
     0.031     0.748   0.426617-105
     0.031     0.756   0.199479-107
     0.031     0.764   0.769275-110
     0.031     0.772   0.234913-112
     0.031     0.780   0.532588-115
     0.031     0.787   0.796935-118
     0.031     0.795   0.590348-121
     0.031     0.803    0.00000    
     0.031     0.811    0.00000    
     0.031     0.819    0.00000    
     0.031     0.827    0.00000    
     0.031     0.835    0.00000    
     0.031     0.843    0.00000    
     0.031     0.850    0.00000    
     0.031     0.858    0.00000    
     0.031     0.866    0.00000    
     0.031     0.874    0.00000    
     0.031     0.882    0.00000    
     0.031     0.890    0.00000    
     0.031     0.898    0.00000    
     0.031     0.906    0.00000    
     0.031     0.913    0.00000    
     0.031     0.921    0.00000    
     0.031     0.929    0.00000    
     0.031     0.937    0.00000    
     0.031     0.945    0.00000    
     0.031     0.953    0.00000    
     0.031     0.961    0.00000    
     0.031     0.969    0.00000    
     0.031     0.976    0.00000    
     0.031     0.984    0.00000    
     0.031     0.992    0.00000    
     0.031     1.000    0.00000    
     0.039     0.000    0.00000    
     0.039     0.008   0.130056E-03
     0.039     0.016   0.231202E-03
     0.039     0.024   0.285130E-03
     0.039     0.031   0.289349E-03
     0.039     0.039   0.255104E-03
     0.039     0.047   0.200352E-03
     0.039     0.055   0.142162E-03
     0.039     0.063   0.919733E-04
     0.039     0.071   0.546097E-04
     0.039     0.079   0.299090E-04
     0.039     0.087   0.151720E-04
     0.039     0.094   0.715318E-05
     0.039     0.102   0.314402E-05
     0.039     0.110   0.129170E-05
     0.039     0.118   0.497248E-06
     0.039     0.126   0.179750E-06
     0.039     0.134   0.611382E-07
     0.039     0.142   0.196020E-07
     0.039     0.150   0.593421E-08
     0.039     0.157   0.169894E-08
     0.039     0.165   0.460648E-09
     0.039     0.173   0.118445E-09
     0.039     0.181   0.289177E-10
     0.039     0.189   0.671128E-11
     0.039     0.197   0.148220E-11
     0.039     0.205   0.311820E-12
     0.039     0.213   0.625454E-13
     0.039     0.220   0.119717E-13
     0.039     0.228   0.218841E-14
     0.039     0.236   0.382333E-15
     0.039     0.244   0.638841E-16
     0.039     0.252   0.102155E-16
     0.039     0.260   0.156421E-17
     0.039     0.268   0.229478E-18
     0.039     0.276   0.322713E-19
     0.039     0.283   0.435233E-20
     0.039     0.291   0.563175E-21
     0.039     0.299   0.699437E-22
     0.039     0.307   0.834052E-23
     0.039     0.315   0.955245E-24
     0.039     0.323   0.105109E-24
     0.039     0.331   0.111142E-25
     0.039     0.339   0.112961E-26
     0.039     0.346   0.110376E-27
     0.039     0.354   0.103703E-28
     0.039     0.362   0.936989E-30
     0.039     0.370   0.814247E-31
     0.039     0.378   0.680597E-32
     0.039     0.386   0.547217E-33
     0.039     0.394   0.423230E-34
     0.039     0.402   0.314876E-35
     0.039     0.409   0.225339E-36
     0.039     0.417   0.155111E-37
     0.039     0.425   0.102689E-38
     0.039     0.433   0.653771E-40
     0.039     0.441   0.400211E-41
     0.039     0.449   0.235526E-42
     0.039     0.457   0.133225E-43
     0.039     0.465   0.724144E-45
     0.039     0.472   0.378132E-46
     0.039     0.480   0.189630E-47
     0.039     0.488   0.912999E-49
     0.039     0.496   0.421859E-50
     0.039     0.504   0.186990E-51
     0.039     0.512   0.794732E-53
     0.039     0.520   0.323712E-54
     0.039     0.528   0.126297E-55
     0.039     0.535   0.471692E-57
     0.039     0.543   0.168528E-58
     0.039     0.551   0.575603E-60
     0.039     0.559   0.187789E-61
     0.039     0.567   0.584721E-63
     0.039     0.575   0.173601E-64
     0.039     0.583   0.490960E-66
     0.039     0.591   0.132115E-67
     0.039     0.598   0.337867E-69
     0.039     0.606   0.820092E-71
     0.039     0.614   0.188658E-72
     0.039     0.622   0.410676E-74
     0.039     0.630   0.844463E-76
     0.039     0.638   0.163715E-77
     0.039     0.646   0.298606E-79
     0.039     0.654   0.511197E-81
     0.039     0.661   0.819250E-83
     0.039     0.669   0.122546E-84
     0.039     0.677   0.170525E-86
     0.039     0.685   0.219910E-88
     0.039     0.693   0.261691E-90
     0.039     0.701   0.285926E-92
     0.039     0.709   0.285179E-94
     0.039     0.717   0.257872E-96
     0.039     0.724   0.209682E-98
     0.039     0.732   0.151802-100
     0.039     0.740   0.966502-103
     0.039     0.748   0.532782-105
     0.039     0.756   0.249120-107
     0.039     0.764   0.960711-110
     0.039     0.772   0.293372-112
     0.039     0.780   0.665123-115
     0.039     0.787   0.995254-118
     0.039     0.795   0.737257-121
     0.039     0.803    0.00000    
     0.039     0.811    0.00000    
     0.039     0.819    0.00000    
     0.039     0.827    0.00000    
     0.039     0.835    0.00000    
     0.039     0.843    0.00000    
     0.039     0.850    0.00000    
     0.039     0.858    0.00000    
     0.039     0.866    0.00000    
     0.039     0.874    0.00000    
     0.039     0.882    0.00000    
     0.039     0.890    0.00000    
     0.039     0.898    0.00000    
     0.039     0.906    0.00000    
     0.039     0.913    0.00000    
     0.039     0.921    0.00000    
     0.039     0.929    0.00000    
     0.039     0.937    0.00000    
     0.039     0.945    0.00000    
     0.039     0.953    0.00000    
     0.039     0.961    0.00000    
     0.039     0.969    0.00000    
     0.039     0.976    0.00000    
     0.039     0.984    0.00000    
     0.039     0.992    0.00000    
     0.039     1.000    0.00000    
     0.047     0.000    0.00000    
     0.047     0.008   0.155892E-03
     0.047     0.016   0.277131E-03
     0.047     0.024   0.341772E-03
     0.047     0.031   0.346829E-03
     0.047     0.039   0.305782E-03
     0.047     0.047   0.240153E-03
     0.047     0.055   0.170403E-03
     0.047     0.063   0.110244E-03
     0.047     0.071   0.654581E-04
     0.047     0.079   0.358505E-04
     0.047     0.087   0.181859E-04
     0.047     0.094   0.857418E-05
     0.047     0.102   0.376858E-05
     0.047     0.110   0.154830E-05
     0.047     0.118   0.596028E-06
     0.047     0.126   0.215458E-06
     0.047     0.134   0.732835E-07
     0.047     0.142   0.234960E-07
     0.047     0.150   0.711306E-08
     0.047     0.157   0.203643E-08
     0.047     0.165   0.552157E-09
     0.047     0.173   0.141975E-09
     0.047     0.181   0.346623E-10
     0.047     0.189   0.804449E-11
     0.047     0.197   0.177665E-11
     0.047     0.205   0.373764E-12
     0.047     0.213   0.749702E-13
     0.047     0.220   0.143499E-13
     0.047     0.228   0.262315E-14
     0.047     0.236   0.458285E-15
     0.047     0.244   0.765748E-16
     0.047     0.252   0.122448E-16
     0.047     0.260   0.187494E-17
     0.047     0.268   0.275065E-18
     0.047     0.276   0.386821E-19
     0.047     0.283   0.521694E-20
     0.047     0.291   0.675051E-21
     0.047     0.299   0.838383E-22
     0.047     0.307   0.999738E-23
     0.047     0.315   0.114501E-23
     0.047     0.323   0.125989E-24
     0.047     0.331   0.133220E-25
     0.047     0.339   0.135401E-26
     0.047     0.346   0.132302E-27
     0.047     0.354   0.124303E-28
     0.047     0.362   0.112312E-29
     0.047     0.370   0.976000E-31
     0.047     0.378   0.815800E-32
     0.047     0.386   0.655923E-33
     0.047     0.394   0.507305E-34
     0.047     0.402   0.377427E-35
     0.047     0.409   0.270103E-36
     0.047     0.417   0.185925E-37
     0.047     0.425   0.123088E-38
     0.047     0.433   0.783644E-40
     0.047     0.441   0.479714E-41
     0.047     0.449   0.282313E-42
     0.047     0.457   0.159690E-43
     0.047     0.465   0.867998E-45
     0.047     0.472   0.453249E-46
     0.047     0.480   0.227301E-47
     0.047     0.488   0.109437E-48