Title="Temperature Data"
Variables="X","Y","T"
 
Zone I=   128, J=   128, F=POINT
     0.000     0.000    0.00000    
     0.000     0.008    0.00000    
     0.000     0.016    0.00000    
     0.000     0.024    0.00000    
     0.000     0.031    0.00000    
     0.000     0.039    0.00000    
     0.000     0.047    0.00000    
     0.000     0.055    0.00000    
     0.000     0.063    0.00000    
     0.000     0.071    0.00000    
     0.000     0.079    0.00000    
     0.000     0.087    0.00000    
     0.000     0.094    0.00000    
     0.000     0.102    0.00000    
     0.000     0.110    0.00000    
     0.000     0.118    0.00000    
     0.000     0.126    0.00000    
     0.000     0.134    0.00000    
     0.000     0.142    0.00000    
     0.000     0.150    0.00000    
     0.000     0.157    0.00000    
     0.000     0.165    0.00000    
     0.000     0.173    0.00000    
     0.000     0.181    0.00000    
     0.000     0.189    0.00000    
     0.000     0.197    0.00000    
     0.000     0.205    0.00000    
     0.000     0.213    0.00000    
     0.000     0.220    0.00000    
     0.000     0.228    0.00000    
     0.000     0.236    0.00000    
     0.000     0.244    0.00000    
     0.000     0.252    0.00000    
     0.000     0.260    0.00000    
     0.000     0.268    0.00000    
     0.000     0.276    0.00000    
     0.000     0.283    0.00000    
     0.000     0.291    0.00000    
     0.000     0.299    0.00000    
     0.000     0.307    0.00000    
     0.000     0.315    0.00000    
     0.000     0.323    0.00000    
     0.000     0.331    0.00000    
     0.000     0.339    0.00000    
     0.000     0.346    0.00000    
     0.000     0.354    0.00000    
     0.000     0.362    0.00000    
     0.000     0.370    0.00000    
     0.000     0.378    0.00000    
     0.000     0.386    0.00000    
     0.000     0.394    0.00000    
     0.000     0.402    0.00000    
     0.000     0.409    0.00000    
     0.000     0.417    0.00000    
     0.000     0.425    0.00000    
     0.000     0.433    0.00000    
     0.000     0.441    0.00000    
     0.000     0.449    0.00000    
     0.000     0.457    0.00000    
     0.000     0.465    0.00000    
     0.000     0.472    0.00000    
     0.000     0.480    0.00000    
     0.000     0.488    0.00000    
     0.000     0.496    0.00000    
     0.000     0.504    0.00000    
     0.000     0.512    0.00000    
     0.000     0.520    0.00000    
     0.000     0.528    0.00000    
     0.000     0.535    0.00000    
     0.000     0.543    0.00000    
     0.000     0.551    0.00000    
     0.000     0.559    0.00000    
     0.000     0.567    0.00000    
     0.000     0.575    0.00000    
     0.000     0.583    0.00000    
     0.000     0.591    0.00000    
     0.000     0.598    0.00000    
     0.000     0.606    0.00000    
     0.000     0.614    0.00000    
     0.000     0.622    0.00000    
     0.000     0.630    0.00000    
     0.000     0.638    0.00000    
     0.000     0.646    0.00000    
     0.000     0.654    0.00000    
     0.000     0.661    0.00000    
     0.000     0.669    0.00000    
     0.000     0.677    0.00000    
     0.000     0.685    0.00000    
     0.000     0.693    0.00000    
     0.000     0.701    0.00000    
     0.000     0.709    0.00000    
     0.000     0.717    0.00000    
     0.000     0.724    0.00000    
     0.000     0.732    0.00000    
     0.000     0.740    0.00000    
     0.000     0.748    0.00000    
     0.000     0.756    0.00000    
     0.000     0.764    0.00000    
     0.000     0.772    0.00000    
     0.000     0.780    0.00000    
     0.000     0.787    0.00000    
     0.000     0.795    0.00000    
     0.000     0.803    0.00000    
     0.000     0.811    0.00000    
     0.000     0.819    0.00000    
     0.000     0.827    0.00000    
     0.000     0.835    0.00000    
     0.000     0.843    0.00000    
     0.000     0.850    0.00000    
     0.000     0.858    0.00000    
     0.000     0.866    0.00000    
     0.000     0.874    0.00000    
     0.000     0.882    0.00000    
     0.000     0.890    0.00000    
     0.000     0.898    0.00000    
     0.000     0.906    0.00000    
     0.000     0.913    0.00000    
     0.000     0.921    0.00000    
     0.000     0.929    0.00000    
     0.000     0.937    0.00000    
     0.000     0.945    0.00000    
     0.000     0.953    0.00000    
     0.000     0.961    0.00000    
     0.000     0.969    0.00000    
     0.000     0.976    0.00000    
     0.000     0.984    0.00000    
     0.000     0.992    0.00000    
     0.000     1.000    0.00000    
     0.008     0.000   0.247344E-01
     0.008     0.008   0.240694E-01
     0.008     0.016   0.234193E-01
     0.008     0.024   0.227836E-01
     0.008     0.031   0.221622E-01
     0.008     0.039   0.215546E-01
     0.008     0.047   0.209608E-01
     0.008     0.055   0.203802E-01
     0.008     0.063   0.198129E-01
     0.008     0.071   0.192582E-01
     0.008     0.079   0.187163E-01
     0.008     0.087   0.181866E-01
     0.008     0.094   0.176691E-01
     0.008     0.102   0.171633E-01
     0.008     0.110   0.166694E-01
     0.008     0.118   0.161866E-01
     0.008     0.126   0.157154E-01
     0.008     0.134   0.152548E-01
     0.008     0.142   0.148053E-01
     0.008     0.150   0.143660E-01
     0.008     0.157   0.139375E-01
     0.008     0.165   0.135188E-01
     0.008     0.173   0.131105E-01
     0.008     0.181   0.127116E-01
     0.008     0.189   0.123228E-01
     0.008     0.197   0.119430E-01
     0.008     0.205   0.115729E-01
     0.008     0.213   0.112115E-01
     0.008     0.220   0.108595E-01
     0.008     0.228   0.105158E-01
     0.008     0.236   0.101812E-01
     0.008     0.244   0.985454E-02
     0.008     0.252   0.953673E-02
     0.008     0.260   0.922655E-02
     0.008     0.268   0.892491E-02
     0.008     0.276   0.863058E-02
     0.008     0.283   0.834450E-02
     0.008     0.291   0.806543E-02
     0.008     0.299   0.779435E-02
     0.008     0.307   0.752997E-02
     0.008     0.315   0.727331E-02
     0.008     0.323   0.702307E-02
     0.008     0.331   0.678028E-02
     0.008     0.339   0.654364E-02
     0.008     0.346   0.631419E-02
     0.008     0.354   0.609062E-02
     0.008     0.362   0.587399E-02
     0.008     0.370   0.566298E-02
     0.008     0.378   0.545865E-02
     0.008     0.386   0.525968E-02
     0.008     0.394   0.506716E-02
     0.008     0.402   0.487975E-02
     0.008     0.409   0.469853E-02
     0.008     0.417   0.452220E-02
     0.008     0.425   0.435182E-02
     0.008     0.433   0.418609E-02
     0.008     0.441   0.402607E-02
     0.008     0.449   0.387048E-02
     0.008     0.457   0.372037E-02
     0.008     0.465   0.357446E-02
     0.008     0.472   0.343380E-02
     0.008     0.480   0.329714E-02
     0.008     0.488   0.316549E-02
     0.008     0.496   0.303764E-02
     0.008     0.504   0.291458E-02
     0.008     0.512   0.279511E-02
     0.008     0.520   0.268021E-02
     0.008     0.528   0.256872E-02
     0.008     0.535   0.246157E-02
     0.008     0.543   0.235765E-02
     0.008     0.551   0.225785E-02
     0.008     0.559   0.216110E-02
     0.008     0.567   0.206827E-02
     0.008     0.575   0.197832E-02
     0.008     0.583   0.189207E-02
     0.008     0.591   0.180854E-02
     0.008     0.598   0.172851E-02
     0.008     0.606   0.165103E-02
     0.008     0.614   0.157687E-02
     0.008     0.622   0.150509E-02
     0.008     0.630   0.143645E-02
     0.008     0.638   0.137004E-02
     0.008     0.646   0.130657E-02
     0.008     0.654   0.124519E-02
     0.008     0.661   0.118658E-02
     0.008     0.669   0.112993E-02
     0.008     0.677   0.107586E-02
     0.008     0.685   0.102361E-02
     0.008     0.693   0.973788E-03
     0.008     0.701   0.925655E-03
     0.008     0.709   0.879779E-03
     0.008     0.717   0.835474E-03
     0.008     0.724   0.793269E-03
     0.008     0.732   0.752516E-03
     0.008     0.740   0.713711E-03
     0.008     0.748   0.676247E-03
     0.008     0.756   0.640583E-03
     0.008     0.764   0.606152E-03
     0.008     0.772   0.573380E-03
     0.008     0.780   0.541738E-03
     0.008     0.787   0.511619E-03
     0.008     0.795   0.482532E-03
     0.008     0.803   0.454835E-03
     0.008     0.811   0.428076E-03
     0.008     0.819   0.402580E-03
     0.008     0.827   0.377933E-03
     0.008     0.835   0.354426E-03
     0.008     0.843   0.331681E-03
     0.008     0.850   0.309958E-03
     0.008     0.858   0.288914E-03
     0.008     0.866   0.268778E-03
     0.008     0.874   0.249241E-03
     0.008     0.882   0.230502E-03
     0.008     0.890   0.212283E-03
     0.008     0.898   0.194756E-03
     0.008     0.906   0.177675E-03
     0.008     0.913   0.161181E-03
     0.008     0.921   0.145060E-03
     0.008     0.929   0.129425E-03
     0.008     0.937   0.114092E-03
     0.008     0.945   0.991456E-04
     0.008     0.953   0.844329E-04
     0.008     0.961   0.700078E-04
     0.008     0.969   0.557490E-04
     0.008     0.976   0.416812E-04
     0.008     0.984   0.277129E-04
     0.008     0.992   0.138399E-04
     0.008     1.000    0.00000    
     0.016     0.000   0.494537E-01
     0.016     0.008   0.481242E-01
     0.016     0.016   0.468242E-01
     0.016     0.024   0.455533E-01
     0.016     0.031   0.443107E-01
     0.016     0.039   0.430962E-01
     0.016     0.047   0.419087E-01
     0.016     0.055   0.407481E-01
     0.016     0.063   0.396135E-01
     0.016     0.071   0.385048E-01
     0.016     0.079   0.374210E-01
     0.016     0.087   0.363622E-01
     0.016     0.094   0.353272E-01
     0.016     0.102   0.343164E-01
     0.016     0.110   0.333283E-01
     0.016     0.118   0.323637E-01
     0.016     0.126   0.314208E-01
     0.016     0.134   0.305005E-01
     0.016     0.142   0.296011E-01
     0.016     0.150   0.287236E-01
     0.016     0.157   0.278661E-01
     0.016     0.165   0.270297E-01
     0.016     0.173   0.262126E-01
     0.016     0.181   0.254159E-01
     0.016     0.189   0.246376E-01
     0.016     0.197   0.238791E-01
     0.016     0.205   0.231382E-01
     0.016     0.213   0.224165E-01
     0.016     0.220   0.217118E-01
     0.016     0.228   0.210256E-01
     0.016     0.236   0.203556E-01
     0.016     0.244   0.197036E-01
     0.016     0.252   0.190671E-01
     0.016     0.260   0.184480E-01
     0.016     0.268   0.178438E-01
     0.016     0.276   0.172564E-01
     0.016     0.283   0.166833E-01
     0.016     0.291   0.161265E-01
     0.016     0.299   0.155834E-01
     0.016     0.307   0.150559E-01
     0.016     0.315   0.145416E-01
     0.016     0.323   0.140424E-01
     0.016     0.331   0.135558E-01
     0.016     0.339   0.130839E-01
     0.016     0.346   0.126239E-01
     0.016     0.354   0.121781E-01
     0.016     0.362   0.117438E-01
     0.016     0.370   0.113231E-01
     0.016     0.378   0.109134E-01
     0.016     0.386   0.105167E-01
     0.016     0.394   0.101306E-01
     0.016     0.402   0.975711E-02
     0.016     0.409   0.939360E-02
     0.016     0.417   0.904223E-02
     0.016     0.425   0.870039E-02
     0.016     0.433   0.837021E-02
     0.016     0.441   0.804910E-02
     0.016     0.449   0.773917E-02
     0.016     0.457   0.743789E-02
     0.016     0.465   0.714731E-02
     0.016     0.472   0.686494E-02
     0.016     0.480   0.659282E-02
     0.016     0.488   0.632850E-02
     0.016     0.496   0.607397E-02
     0.016     0.504   0.582683E-02
     0.016     0.512   0.558904E-02
     0.016     0.520   0.535826E-02
     0.016     0.528   0.513638E-02
     0.016     0.535   0.492113E-02
     0.016     0.543   0.471435E-02
     0.016     0.551   0.451383E-02
     0.016     0.559   0.432136E-02
     0.016     0.567   0.413481E-02
     0.016     0.575   0.395589E-02
     0.016     0.583   0.378253E-02
     0.016     0.591   0.361641E-02
     0.016     0.598   0.345553E-02
     0.016     0.606   0.330148E-02
     0.016     0.614   0.315235E-02
     0.016     0.622   0.300967E-02
     0.016     0.630   0.287161E-02
     0.016     0.638   0.273962E-02
     0.016     0.646   0.261196E-02
     0.016     0.654   0.249000E-02
     0.016     0.661   0.237208E-02
     0.016     0.669   0.225951E-02
     0.016     0.677   0.215072E-02
     0.016     0.685   0.204693E-02
     0.016     0.693   0.194666E-02
     0.016     0.701   0.185106E-02
     0.016     0.709   0.175872E-02
     0.016     0.717   0.167073E-02
     0.016     0.724   0.158577E-02
     0.016     0.732   0.150485E-02
     0.016     0.740   0.142672E-02
     0.016     0.748   0.135234E-02
     0.016     0.756   0.128053E-02
     0.016     0.764   0.121217E-02
     0.016     0.772   0.114618E-02
     0.016     0.780   0.108337E-02
     0.016     0.787   0.102271E-02
     0.016     0.795   0.964971E-03
     0.016     0.803   0.909197E-03
     0.016     0.811   0.856075E-03
     0.016     0.819   0.804737E-03
     0.016     0.827   0.755802E-03
     0.016     0.835   0.708475E-03
     0.016     0.843   0.663310E-03
     0.016     0.850   0.619583E-03
     0.016     0.858   0.577786E-03
     0.016     0.866   0.537265E-03
     0.016     0.874   0.498449E-03
     0.016     0.882   0.460750E-03
     0.016     0.890   0.424541E-03
     0.016     0.898   0.389297E-03
     0.016     0.906   0.355330E-03
     0.016     0.913   0.322182E-03
     0.016     0.921   0.290105E-03
     0.016     0.929   0.258704E-03
     0.016     0.937   0.228174E-03
     0.016     0.945   0.198179E-03
     0.016     0.953   0.168858E-03
     0.016     0.961   0.139936E-03
     0.016     0.969   0.111493E-03
     0.016     0.976   0.833152E-04
     0.016     0.984   0.554234E-04
     0.016     0.992   0.276641E-04
     0.016     1.000    0.00000    
     0.024     0.000   0.741428E-01
     0.024     0.008   0.721494E-01
     0.024     0.016   0.702005E-01
     0.024     0.024   0.682951E-01
     0.024     0.031   0.664323E-01
     0.024     0.039   0.646111E-01
     0.024     0.047   0.628311E-01
     0.024     0.055   0.610908E-01
     0.024     0.063   0.593902E-01
     0.024     0.071   0.577275E-01
     0.024     0.079   0.561032E-01
     0.024     0.087   0.545152E-01
     0.024     0.094   0.529642E-01
     0.024     0.102   0.514480E-01
     0.024     0.110   0.499674E-01
     0.024     0.118   0.485203E-01
     0.024     0.126   0.471076E-01
     0.024     0.134   0.457270E-01
     0.024     0.142   0.443796E-01
     0.024     0.150   0.430629E-01
     0.024     0.157   0.417784E-01
     0.024     0.165   0.405233E-01
     0.024     0.173   0.392994E-01
     0.024     0.181   0.381037E-01
     0.024     0.189   0.369382E-01
     0.024     0.197   0.357997E-01
     0.024     0.205   0.346903E-01
     0.024     0.213   0.336070E-01
     0.024     0.220   0.325518E-01
     0.024     0.228   0.315215E-01
     0.024     0.236   0.305186E-01
     0.024     0.244   0.295395E-01
     0.024     0.252   0.285869E-01
     0.024     0.260   0.276571E-01
     0.024     0.268   0.267529E-01
     0.024     0.276   0.258706E-01
     0.024     0.283   0.250131E-01
     0.024     0.291   0.241766E-01
     0.024     0.299   0.233640E-01
     0.024     0.307   0.225715E-01
     0.024     0.315   0.218021E-01
     0.024     0.323   0.210520E-01
     0.024     0.331   0.203243E-01
     0.024     0.339   0.196149E-01
     0.024     0.346   0.189271E-01
     0.024     0.354   0.182570E-01
     0.024     0.362   0.176076E-01
     0.024     0.370   0.169751E-01
     0.024     0.378   0.163626E-01
     0.024     0.386   0.157662E-01
     0.024     0.394   0.151891E-01
     0.024     0.402   0.146273E-01
     0.024     0.409   0.140841E-01
     0.024     0.417   0.135555E-01
     0.024     0.425   0.130448E-01
     0.024     0.433   0.125480E-01
     0.024     0.441   0.120684E-01
     0.024     0.449   0.116020E-01
     0.024     0.457   0.111520E-01
     0.024     0.465   0.107146E-01
     0.024     0.472   0.102930E-01
     0.024     0.480   0.988336E-02
     0.024     0.488   0.948873E-02
     0.024     0.496   0.910549E-02
     0.024     0.504   0.873659E-02
     0.024     0.512   0.837850E-02
     0.024     0.520   0.803407E-02
     0.024     0.528   0.769987E-02
     0.024     0.535   0.737868E-02
     0.024     0.543   0.706717E-02
     0.024     0.551   0.676803E-02
     0.024     0.559   0.647802E-02
     0.024     0.567   0.619976E-02
     0.024     0.575   0.593011E-02
     0.024     0.583   0.567159E-02
     0.024     0.591   0.542118E-02
     0.024     0.598   0.518130E-02
     0.024     0.606   0.494905E-02
     0.024     0.614   0.472674E-02
     0.024     0.622   0.451159E-02
     0.024     0.630   0.430582E-02
     0.024     0.638   0.410675E-02
     0.024     0.646   0.391651E-02
     0.024     0.654   0.373254E-02
     0.024     0.661   0.355685E-02
     0.024     0.669   0.338702E-02
     0.024     0.677   0.322495E-02
     0.024     0.685   0.306834E-02
     0.024     0.693   0.291898E-02
     0.024     0.701   0.277470E-02
     0.024     0.709   0.263719E-02
     0.024     0.717   0.250438E-02
     0.024     0.724   0.237786E-02
     0.024     0.732   0.225571E-02
     0.024     0.740   0.213939E-02
     0.024     0.748   0.202709E-02
     0.024     0.756   0.192018E-02
     0.024     0.764   0.181697E-02
     0.024     0.772   0.171874E-02
     0.024     0.780   0.162389E-02
     0.024     0.787   0.153360E-02
     0.024     0.795   0.144641E-02
     0.024     0.803   0.136339E-02
     0.024     0.811   0.128318E-02
     0.024     0.819   0.120676E-02
     0.024     0.827   0.113287E-02
     0.024     0.835   0.106241E-02
     0.024     0.843   0.994230E-03
     0.024     0.850   0.929116E-03
     0.024     0.858   0.866034E-03
     0.024     0.866   0.805677E-03
     0.024     0.874   0.747112E-03
     0.024     0.882   0.690941E-03
     0.024     0.890   0.636330E-03
     0.024     0.898   0.583792E-03
     0.024     0.906   0.532590E-03
     0.024     0.913   0.483148E-03
     0.024     0.921   0.434826E-03
     0.024     0.929   0.387958E-03
     0.024     0.937   0.341998E-03
     0.024     0.945   0.297194E-03
     0.024     0.953   0.253092E-03
     0.024     0.961   0.209852E-03
     0.024     0.969   0.167111E-03
     0.024     0.976   0.124942E-03
     0.024     0.984   0.830710E-04
     0.024     0.992   0.414859E-04
     0.024     1.000    0.00000    
     0.031     0.000   0.987864E-01
     0.031     0.008   0.961306E-01
     0.031     0.016   0.935338E-01
     0.031     0.024   0.909952E-01
     0.031     0.031   0.885131E-01
     0.031     0.039   0.860869E-01
     0.031     0.047   0.837148E-01
     0.031     0.055   0.813965E-01
     0.031     0.063   0.791300E-01
     0.031     0.071   0.769154E-01
     0.031     0.079   0.747504E-01
     0.031     0.087   0.726355E-01
     0.031     0.094   0.705680E-01
     0.031     0.102   0.685488E-01
     0.031     0.110   0.665751E-01
     0.031     0.118   0.646481E-01
     0.031     0.126   0.627647E-01
     0.031     0.134   0.609264E-01
     0.031     0.142   0.591298E-01
     0.031     0.150   0.573769E-01
     0.031     0.157   0.556640E-01
     0.031     0.165   0.539933E-01
     0.031     0.173   0.523610E-01
     0.031     0.181   0.507696E-01
     0.031     0.189   0.492149E-01
     0.031     0.197   0.476997E-01
     0.031     0.205   0.462198E-01
     0.031     0.213   0.447782E-01
     0.031     0.220   0.433705E-01
     0.031     0.228   0.419997E-01
     0.031     0.236   0.406614E-01
     0.031     0.244   0.393589E-01
     0.031     0.252   0.380875E-01
     0.031     0.260   0.368508E-01
     0.031     0.268   0.356440E-01
     0.031     0.276   0.344706E-01
     0.031     0.283   0.333258E-01
     0.031     0.291   0.322135E-01
     0.031     0.299   0.311286E-01
     0.031     0.307   0.300750E-01
     0.031     0.315   0.290476E-01
     0.031     0.323   0.280505E-01
     0.031     0.331   0.270785E-01
     0.031     0.339   0.261357E-01
     0.031     0.346   0.252170E-01
     0.031     0.354   0.243264E-01
     0.031     0.362   0.234588E-01
     0.031     0.370   0.226185E-01
     0.031     0.378   0.218000E-01
     0.031     0.386   0.210078E-01
     0.031     0.394   0.202364E-01
     0.031     0.402   0.194903E-01
     0.031     0.409   0.187642E-01
     0.031     0.417   0.180623E-01
     0.031     0.425   0.173795E-01
     0.031     0.433   0.167199E-01
     0.031     0.441   0.160785E-01
     0.031     0.449   0.154594E-01
     0.031     0.457   0.148576E-01
     0.031     0.465   0.142771E-01
     0.031     0.472   0.137131E-01
     0.031     0.480   0.131695E-01
     0.031     0.488   0.126415E-01
     0.031     0.496   0.121331E-01
     0.031     0.504   0.116394E-01
     0.031     0.512   0.111644E-01
     0.031     0.520   0.107034E-01
     0.031     0.528   0.102602E-01
     0.031     0.535   0.983021E-02
     0.031     0.543   0.941715E-02
     0.031     0.551   0.901662E-02
     0.031     0.559   0.863215E-02
     0.031     0.567   0.825950E-02
     0.031     0.575   0.790209E-02
     0.031     0.583   0.755581E-02
     0.031     0.591   0.722397E-02
     0.031     0.598   0.690260E-02
     0.031     0.606   0.659488E-02
     0.031     0.614   0.629699E-02
     0.031     0.622   0.601198E-02
     0.031     0.630   0.573620E-02
     0.031     0.638   0.547254E-02
     0.031     0.646   0.521752E-02
     0.031     0.654   0.497390E-02
     0.031     0.661   0.473836E-02
     0.031     0.669   0.451350E-02
     0.031     0.677   0.429618E-02
     0.031     0.685   0.408886E-02
     0.031     0.693   0.388855E-02
     0.031     0.701   0.369758E-02
     0.031     0.709   0.351313E-02
     0.031     0.717   0.333737E-02
     0.031     0.724   0.316765E-02
     0.031     0.732   0.300601E-02
     0.031     0.740   0.284995E-02
     0.031     0.748   0.270136E-02
     0.031     0.756   0.255792E-02
     0.031     0.764   0.242138E-02
     0.031     0.772   0.228955E-02
     0.031     0.780   0.216408E-02
     0.031     0.787   0.204292E-02
     0.031     0.795   0.192758E-02
     0.031     0.803   0.181617E-02
     0.031     0.811   0.171006E-02
     0.031     0.819   0.160751E-02
     0.031     0.827   0.150976E-02
     0.031     0.835   0.141522E-02
     0.031     0.843   0.132500E-02
     0.031     0.850   0.123765E-02
     0.031     0.858   0.115416E-02
     0.031     0.866   0.107321E-02
     0.031     0.874   0.995677E-03
     0.031     0.882   0.920373E-03
     0.031     0.890   0.848042E-03
     0.031     0.898   0.777641E-03
     0.031     0.906   0.709790E-03
     0.031     0.913   0.643575E-03
     0.031     0.921   0.579500E-03
     0.031     0.929   0.516776E-03
     0.031     0.937   0.455789E-03
     0.031     0.945   0.395874E-03
     0.031     0.953   0.337302E-03
     0.031     0.961   0.279530E-03
     0.031     0.969   0.222713E-03
     0.031     0.976   0.166427E-03
     0.031     0.984   0.110711E-03
     0.031     0.992   0.552606E-04
     0.031     1.000    0.00000    
     0.039     0.000   0.123370    
     0.039     0.008   0.120053    
     0.039     0.016   0.116810    
     0.039     0.024   0.113639    
     0.039     0.031   0.110540    
     0.039     0.039   0.107510    
     0.039     0.047   0.104548    
     0.039     0.055   0.101652    
     0.039     0.063   0.988221E-01
     0.039     0.071   0.960556E-01
     0.039     0.079   0.933527E-01
     0.039     0.087   0.907104E-01
     0.039     0.094   0.881296E-01
     0.039     0.102   0.856067E-01
     0.039     0.110   0.831432E-01
     0.039     0.118   0.807352E-01
     0.039     0.126   0.783846E-01
     0.039     0.134   0.760872E-01
     0.039     0.142   0.738453E-01
     0.039     0.150   0.716544E-01
     0.039     0.157   0.695171E-01
     0.039     0.165   0.674287E-01
     0.039     0.173   0.653922E-01
     0.039     0.181   0.634026E-01
     0.039     0.189   0.614632E-01
     0.039     0.197   0.595688E-01
     0.039     0.205   0.577229E-01
     0.039     0.213   0.559202E-01
     0.039     0.220   0.541645E-01
     0.039     0.228   0.524502E-01
     0.039     0.236   0.507813E-01
     0.039     0.244   0.491522E-01
     0.039     0.252   0.475670E-01
     0.039     0.260   0.460199E-01
     0.039     0.268   0.445154E-01
     0.039     0.276   0.430473E-01
     0.039     0.283   0.416205E-01
     0.039     0.291   0.402285E-01
     0.039     0.299   0.388764E-01
     0.039     0.307   0.375578E-01
     0.039     0.315   0.362776E-01
     0.039     0.323   0.350295E-01
     0.039     0.331   0.338185E-01
     0.039     0.339   0.326382E-01
     0.039     0.346   0.314937E-01
     0.039     0.354   0.303786E-01
     0.039     0.362   0.292981E-01
     0.039     0.370   0.282456E-01
     0.039     0.378   0.272265E-01
     0.039     0.386   0.262341E-01
     0.039     0.394   0.252738E-01
     0.039     0.402   0.243391E-01
     0.039     0.409   0.234352E-01
     0.039     0.417   0.225557E-01
     0.039     0.425   0.217059E-01
     0.039     0.433   0.208793E-01
     0.039     0.441   0.200811E-01
     0.039     0.449   0.193051E-01
     0.039     0.457   0.185563E-01
     0.039     0.465   0.178286E-01
     0.039     0.472   0.171270E-01
     0.039     0.480   0.164454E-01
     0.039     0.488   0.157887E-01
     0.039     0.496   0.151511E-01
     0.039     0.504   0.145372E-01
     0.039     0.512   0.139414E-01
     0.039     0.520   0.133683E-01
     0.039     0.528   0.128122E-01
     0.039     0.535   0.122777E-01
     0.039     0.543   0.117594E-01
     0.039     0.551   0.112616E-01
     0.039     0.559   0.107791E-01
     0.039     0.567   0.103161E-01
     0.039     0.575   0.986739E-02
     0.039     0.583   0.943723E-02
     0.039     0.591   0.902056E-02
     0.039     0.598   0.862142E-02
     0.039     0.606   0.823496E-02
     0.039     0.614   0.786505E-02
     0.039     0.622   0.750705E-02
     0.039     0.630   0.716466E-02
     0.039     0.638   0.683342E-02
     0.039     0.646   0.651686E-02
     0.039     0.654   0.621074E-02
     0.039     0.661   0.591841E-02
     0.039     0.669   0.563582E-02
     0.039     0.677   0.536614E-02
     0.039     0.685   0.510555E-02
     0.039     0.693   0.485703E-02
     0.039     0.701   0.461695E-02
     0.039     0.709   0.438814E-02
     0.039     0.717   0.416715E-02
     0.039     0.724   0.395664E-02
     0.039     0.732   0.375338E-02
     0.039     0.740   0.355983E-02
     0.039     0.748   0.337296E-02
     0.039     0.756   0.319508E-02
     0.039     0.764   0.302335E-02
     0.039     0.772   0.285989E-02
     0.039     0.780   0.270207E-02
     0.039     0.787   0.255184E-02
     0.039     0.795   0.240676E-02
     0.039     0.803   0.226861E-02
     0.039     0.811   0.213514E-02
     0.039     0.819   0.200798E-02
     0.039     0.827   0.188504E-02
     0.039     0.835   0.176780E-02
     0.039     0.843   0.165435E-02
     0.039     0.850   0.154600E-02
     0.039     0.858   0.144104E-02
     0.039     0.866   0.134060E-02
     0.039     0.874   0.124316E-02
     0.039     0.882   0.114969E-02
     0.039     0.890   0.105882E-02
     0.039     0.898   0.971398E-03
     0.039     0.906   0.886202E-03
     0.039     0.913   0.803933E-03
     0.039     0.921   0.723527E-03
     0.039     0.929   0.645541E-03
     0.039     0.937   0.569067E-03
     0.039     0.945   0.494515E-03
     0.039     0.953   0.421132E-03
     0.039     0.961   0.349183E-03
     0.039     0.969   0.278063E-03
     0.039     0.976   0.207896E-03
     0.039     0.984   0.138226E-03
     0.039     0.992   0.690304E-04
     0.039     1.000    0.00000    
     0.047     0.000   0.147877    
     0.047     0.008   0.143902    
     0.047     0.016   0.140015    
     0.047     0.024   0.136214    
     0.047     0.031   0.132499    
     0.047     0.039   0.128867    
     0.047     0.047   0.125316    
     0.047     0.055   0.121846    
     0.047     0.063   0.118453    
     0.047     0.071   0.115138    
     0.047     0.079   0.111897    
     0.047     0.087   0.108731    
     0.047     0.094   0.105636    
     0.047     0.102   0.102613    
     0.047     0.110   0.996590E-01
     0.047     0.118   0.967744E-01
     0.047     0.126   0.939550E-01
     0.047     0.134   0.912032E-01
     0.047     0.142   0.885138E-01
     0.047     0.150   0.858898E-01
     0.047     0.157   0.833257E-01
     0.047     0.165   0.808248E-01
     0.047     0.173   0.783813E-01
     0.047     0.181   0.759990E-01
     0.047     0.189   0.736717E-01
     0.047     0.197   0.714036E-01
     0.047     0.205   0.691884E-01
     0.047     0.213   0.670303E-01
     0.047     0.220   0.649230E-01
     0.047     0.228   0.628710E-01
     0.047     0.236   0.608677E-01
     0.047     0.244   0.589179E-01
     0.047     0.252   0.570148E-01
     0.047     0.260   0.551635E-01
     0.047     0.268   0.533569E-01
     0.047     0.276   0.516004E-01
     0.047     0.283   0.498868E-01
     0.047     0.291   0.482217E-01
     0.047     0.299   0.465976E-01
     0.047     0.307   0.450204E-01
     0.047     0.315   0.434825E-01
     0.047     0.323   0.419899E-01
     0.047     0.331   0.405349E-01
     0.047     0.339   0.391236E-01
     0.047     0.346   0.377483E-01
     0.047     0.354   0.364152E-01
     0.047     0.362   0.351165E-01
     0.047     0.370   0.338585E-01
     0.047     0.378   0.326333E-01
     0.047     0.386   0.314474E-01
     0.047     0.394   0.302927E-01
     0.047     0.402   0.291759E-01
     0.047     0.409   0.280889E-01
     0.047     0.417   0.270382E-01
     0.047     0.425   0.260161E-01
     0.047     0.433   0.250287E-01
     0.047     0.441   0.240686E-01
     0.047     0.449   0.231418E-01
     0.047     0.457   0.222409E-01
     0.047     0.465   0.213720E-01
     0.047     0.472   0.205277E-01
     0.047     0.480   0.197140E-01
     0.047     0.488   0.189236E-01