Title="Temperature Data"
Variables="X","Y","T"
 
Zone I=   128, J=   128, F=POINT
     0.000     0.000    0.00000    
     0.000     0.008    0.00000    
     0.000     0.016    0.00000    
     0.000     0.024    0.00000    
     0.000     0.031    0.00000    
     0.000     0.039    0.00000    
     0.000     0.047    0.00000    
     0.000     0.055    0.00000    
     0.000     0.063    0.00000    
     0.000     0.071    0.00000    
     0.000     0.079    0.00000    
     0.000     0.087    0.00000    
     0.000     0.094    0.00000    
     0.000     0.102    0.00000    
     0.000     0.110    0.00000    
     0.000     0.118    0.00000    
     0.000     0.126    0.00000    
     0.000     0.134    0.00000    
     0.000     0.142    0.00000    
     0.000     0.150    0.00000    
     0.000     0.157    0.00000    
     0.000     0.165    0.00000    
     0.000     0.173    0.00000    
     0.000     0.181    0.00000    
     0.000     0.189    0.00000    
     0.000     0.197    0.00000    
     0.000     0.205    0.00000    
     0.000     0.213    0.00000    
     0.000     0.220    0.00000    
     0.000     0.228    0.00000    
     0.000     0.236    0.00000    
     0.000     0.244    0.00000    
     0.000     0.252    0.00000    
     0.000     0.260    0.00000    
     0.000     0.268    0.00000    
     0.000     0.276    0.00000    
     0.000     0.283    0.00000    
     0.000     0.291    0.00000    
     0.000     0.299    0.00000    
     0.000     0.307    0.00000    
     0.000     0.315    0.00000    
     0.000     0.323    0.00000    
     0.000     0.331    0.00000    
     0.000     0.339    0.00000    
     0.000     0.346    0.00000    
     0.000     0.354    0.00000    
     0.000     0.362    0.00000    
     0.000     0.370    0.00000    
     0.000     0.378    0.00000    
     0.000     0.386    0.00000    
     0.000     0.394    0.00000    
     0.000     0.402    0.00000    
     0.000     0.409    0.00000    
     0.000     0.417    0.00000    
     0.000     0.425    0.00000    
     0.000     0.433    0.00000    
     0.000     0.441    0.00000    
     0.000     0.449    0.00000    
     0.000     0.457    0.00000    
     0.000     0.465    0.00000    
     0.000     0.472    0.00000    
     0.000     0.480    0.00000    
     0.000     0.488    0.00000    
     0.000     0.496    0.00000    
     0.000     0.504    0.00000    
     0.000     0.512    0.00000    
     0.000     0.520    0.00000    
     0.000     0.528    0.00000    
     0.000     0.535    0.00000    
     0.000     0.543    0.00000    
     0.000     0.551    0.00000    
     0.000     0.559    0.00000    
     0.000     0.567    0.00000    
     0.000     0.575    0.00000    
     0.000     0.583    0.00000    
     0.000     0.591    0.00000    
     0.000     0.598    0.00000    
     0.000     0.606    0.00000    
     0.000     0.614    0.00000    
     0.000     0.622    0.00000    
     0.000     0.630    0.00000    
     0.000     0.638    0.00000    
     0.000     0.646    0.00000    
     0.000     0.654    0.00000    
     0.000     0.661    0.00000    
     0.000     0.669    0.00000    
     0.000     0.677    0.00000    
     0.000     0.685    0.00000    
     0.000     0.693    0.00000    
     0.000     0.701    0.00000    
     0.000     0.709    0.00000    
     0.000     0.717    0.00000    
     0.000     0.724    0.00000    
     0.000     0.732    0.00000    
     0.000     0.740    0.00000    
     0.000     0.748    0.00000    
     0.000     0.756    0.00000    
     0.000     0.764    0.00000    
     0.000     0.772    0.00000    
     0.000     0.780    0.00000    
     0.000     0.787    0.00000    
     0.000     0.795    0.00000    
     0.000     0.803    0.00000    
     0.000     0.811    0.00000    
     0.000     0.819    0.00000    
     0.000     0.827    0.00000    
     0.000     0.835    0.00000    
     0.000     0.843    0.00000    
     0.000     0.850    0.00000    
     0.000     0.858    0.00000    
     0.000     0.866    0.00000    
     0.000     0.874    0.00000    
     0.000     0.882    0.00000    
     0.000     0.890    0.00000    
     0.000     0.898    0.00000    
     0.000     0.906    0.00000    
     0.000     0.913    0.00000    
     0.000     0.921    0.00000    
     0.000     0.929    0.00000    
     0.000     0.937    0.00000    
     0.000     0.945    0.00000    
     0.000     0.953    0.00000    
     0.000     0.961    0.00000    
     0.000     0.969    0.00000    
     0.000     0.976    0.00000    
     0.000     0.984    0.00000    
     0.000     0.992    0.00000    
     0.000     1.000    0.00000    
     0.008     0.000   0.247344E-01
     0.008     0.008   0.241155E-01
     0.008     0.016   0.235113E-01
     0.008     0.024   0.229215E-01
     0.008     0.031   0.223458E-01
     0.008     0.039   0.217839E-01
     0.008     0.047   0.212353E-01
     0.008     0.055   0.206999E-01
     0.008     0.063   0.201772E-01
     0.008     0.071   0.196670E-01
     0.008     0.079   0.191689E-01
     0.008     0.087   0.186827E-01
     0.008     0.094   0.182082E-01
     0.008     0.102   0.177450E-01
     0.008     0.110   0.172928E-01
     0.008     0.118   0.168514E-01
     0.008     0.126   0.164206E-01
     0.008     0.134   0.160000E-01
     0.008     0.142   0.155895E-01
     0.008     0.150   0.151888E-01
     0.008     0.157   0.147977E-01
     0.008     0.165   0.144159E-01
     0.008     0.173   0.140433E-01
     0.008     0.181   0.136796E-01
     0.008     0.189   0.133246E-01
     0.008     0.197   0.129781E-01
     0.008     0.205   0.126399E-01
     0.008     0.213   0.123098E-01
     0.008     0.220   0.119877E-01
     0.008     0.228   0.116732E-01
     0.008     0.236   0.113664E-01
     0.008     0.244   0.110668E-01
     0.008     0.252   0.107746E-01
     0.008     0.260   0.104893E-01
     0.008     0.268   0.102109E-01
     0.008     0.276   0.993918E-02
     0.008     0.283   0.967410E-02
     0.008     0.291   0.941532E-02
     0.008     0.299   0.916290E-02
     0.008     0.307   0.891647E-02
     0.008     0.315   0.867612E-02
     0.008     0.323   0.844148E-02
     0.008     0.331   0.821264E-02
     0.008     0.339   0.798924E-02
     0.008     0.346   0.777138E-02
     0.008     0.354   0.755870E-02
     0.008     0.362   0.735132E-02
     0.008     0.370   0.714887E-02
     0.008     0.378   0.695147E-02
     0.008     0.386   0.675877E-02
     0.008     0.394   0.657091E-02
     0.008     0.402   0.638751E-02
     0.008     0.409   0.620872E-02
     0.008     0.417   0.603419E-02
     0.008     0.425   0.586407E-02
     0.008     0.433   0.569798E-02
     0.008     0.441   0.553611E-02
     0.008     0.449   0.537809E-02
     0.008     0.457   0.522409E-02
     0.008     0.465   0.507374E-02
     0.008     0.472   0.492723E-02
     0.008     0.480   0.478419E-02
     0.008     0.488   0.464482E-02
     0.008     0.496   0.450874E-02
     0.008     0.504   0.437616E-02
     0.008     0.512   0.424672E-02
     0.008     0.520   0.412061E-02
     0.008     0.528   0.399747E-02
     0.008     0.535   0.387751E-02
     0.008     0.543   0.376037E-02
     0.008     0.551   0.364625E-02
     0.008     0.559   0.353482E-02
     0.008     0.567   0.342625E-02
     0.008     0.575   0.332023E-02
     0.008     0.583   0.321695E-02
     0.008     0.591   0.311606E-02
     0.008     0.598   0.301778E-02
     0.008     0.606   0.292177E-02
     0.008     0.614   0.282823E-02
     0.008     0.622   0.273684E-02
     0.008     0.630   0.264778E-02
     0.008     0.638   0.256076E-02
     0.008     0.646   0.247596E-02
     0.008     0.654   0.239307E-02
     0.008     0.661   0.231227E-02
     0.008     0.669   0.223328E-02
     0.008     0.677   0.215627E-02
     0.008     0.685   0.208095E-02
     0.008     0.693   0.200750E-02
     0.008     0.701   0.193565E-02
     0.008     0.709   0.186554E-02
     0.008     0.717   0.179693E-02
     0.008     0.724   0.172997E-02
     0.008     0.732   0.166440E-02
     0.008     0.740   0.160037E-02
     0.008     0.748   0.153764E-02
     0.008     0.756   0.147636E-02
     0.008     0.764   0.141628E-02
     0.008     0.772   0.135754E-02
     0.008     0.780   0.129991E-02
     0.008     0.787   0.124353E-02
     0.008     0.795   0.118819E-02
     0.008     0.803   0.113398E-02
     0.008     0.811   0.108073E-02
     0.008     0.819   0.102852E-02
     0.008     0.827   0.977176E-03
     0.008     0.835   0.926791E-03
     0.008     0.843   0.877189E-03
     0.008     0.850   0.828453E-03
     0.008     0.858   0.780420E-03
     0.008     0.866   0.733163E-03
     0.008     0.874   0.686532E-03
     0.008     0.882   0.640587E-03
     0.008     0.890   0.595192E-03
     0.008     0.898   0.550394E-03
     0.008     0.906   0.506071E-03
     0.008     0.913   0.462258E-03
     0.008     0.921   0.418845E-03
     0.008     0.929   0.375857E-03
     0.008     0.937   0.333194E-03
     0.008     0.945   0.290870E-03
     0.008     0.953   0.248799E-03
     0.008     0.961   0.206982E-03
     0.008     0.969   0.165345E-03
     0.008     0.976   0.123876E-03
     0.008     0.984   0.825160E-04
     0.008     0.992   0.412400E-04
     0.008     1.000    0.00000    
     0.016     0.000   0.494537E-01
     0.016     0.008   0.482162E-01
     0.016     0.016   0.470082E-01
     0.016     0.024   0.458290E-01
     0.016     0.031   0.446780E-01
     0.016     0.039   0.435544E-01
     0.016     0.047   0.424576E-01
     0.016     0.055   0.413871E-01
     0.016     0.063   0.403420E-01
     0.016     0.071   0.393219E-01
     0.016     0.079   0.383261E-01
     0.016     0.087   0.373541E-01
     0.016     0.094   0.364052E-01
     0.016     0.102   0.354791E-01
     0.016     0.110   0.345750E-01
     0.016     0.118   0.336925E-01
     0.016     0.126   0.328311E-01
     0.016     0.134   0.319903E-01
     0.016     0.142   0.311695E-01
     0.016     0.150   0.303684E-01
     0.016     0.157   0.295863E-01
     0.016     0.165   0.288231E-01
     0.016     0.173   0.280780E-01
     0.016     0.181   0.273509E-01
     0.016     0.189   0.266410E-01
     0.016     0.197   0.259483E-01
     0.016     0.205   0.252720E-01
     0.016     0.213   0.246122E-01
     0.016     0.220   0.239679E-01
     0.016     0.228   0.233394E-01
     0.016     0.236   0.227257E-01
     0.016     0.244   0.221270E-01
     0.016     0.252   0.215424E-01
     0.016     0.260   0.209722E-01
     0.016     0.268   0.204155E-01
     0.016     0.276   0.198724E-01
     0.016     0.283   0.193422E-01
     0.016     0.291   0.188250E-01
     0.016     0.299   0.183201E-01
     0.016     0.307   0.178276E-01
     0.016     0.315   0.173468E-01
     0.016     0.323   0.168779E-01
     0.016     0.331   0.164201E-01
     0.016     0.339   0.159737E-01
     0.016     0.346   0.155379E-01
     0.016     0.354   0.151129E-01
     0.016     0.362   0.146980E-01
     0.016     0.370   0.142935E-01
     0.016     0.378   0.138986E-01
     0.016     0.386   0.135135E-01
     0.016     0.394   0.131377E-01
     0.016     0.402   0.127712E-01
     0.016     0.409   0.124135E-01
     0.016     0.417   0.120648E-01
     0.016     0.425   0.117244E-01
     0.016     0.433   0.113926E-01
     0.016     0.441   0.110687E-01
     0.016     0.449   0.107530E-01
     0.016     0.457   0.104448E-01
     0.016     0.465   0.101445E-01
     0.016     0.472   0.985130E-02
     0.016     0.480   0.956559E-02
     0.016     0.488   0.928665E-02
     0.016     0.496   0.901487E-02
     0.016     0.504   0.874952E-02
     0.016     0.512   0.849098E-02
     0.016     0.520   0.823856E-02
     0.016     0.528   0.799263E-02
     0.016     0.535   0.775251E-02
     0.016     0.543   0.751857E-02
     0.016     0.551   0.729014E-02
     0.016     0.559   0.706760E-02
     0.016     0.567   0.685028E-02
     0.016     0.575   0.663857E-02
     0.016     0.583   0.643179E-02
     0.016     0.591   0.623035E-02
     0.016     0.598   0.603358E-02
     0.016     0.606   0.584188E-02
     0.016     0.614   0.565460E-02
     0.016     0.622   0.547212E-02
     0.016     0.630   0.529383E-02
     0.016     0.638   0.512008E-02
     0.016     0.646   0.495028E-02
     0.016     0.654   0.478479E-02
     0.016     0.661   0.462301E-02
     0.016     0.669   0.446531E-02
     0.016     0.677   0.431111E-02
     0.016     0.685   0.416074E-02
     0.016     0.693   0.401367E-02
     0.016     0.701   0.387021E-02
     0.016     0.709   0.372984E-02
     0.016     0.717   0.359286E-02
     0.016     0.724   0.345878E-02
     0.016     0.732   0.332787E-02
     0.016     0.740   0.319967E-02
     0.016     0.748   0.307444E-02
     0.016     0.756   0.295172E-02
     0.016     0.764   0.283177E-02
     0.016     0.772   0.271416E-02
     0.016     0.780   0.259912E-02
     0.016     0.787   0.248623E-02
     0.016     0.795   0.237572E-02
     0.016     0.803   0.226720E-02
     0.016     0.811   0.216086E-02
     0.016     0.819   0.205634E-02
     0.016     0.827   0.195382E-02
     0.016     0.835   0.185295E-02
     0.016     0.843   0.175390E-02
     0.016     0.850   0.165634E-02
     0.016     0.858   0.156042E-02
     0.016     0.866   0.146583E-02
     0.016     0.874   0.137269E-02
     0.016     0.882   0.128074E-02
     0.016     0.890   0.119006E-02
     0.016     0.898   0.110041E-02
     0.016     0.906   0.101187E-02
     0.016     0.913   0.924200E-03
     0.016     0.921   0.837465E-03
     0.016     0.929   0.751456E-03
     0.016     0.937   0.666209E-03
     0.016     0.945   0.581541E-03
     0.016     0.953   0.497465E-03
     0.016     0.961   0.413822E-03
     0.016     0.969   0.330601E-03
     0.016     0.976   0.247668E-03
     0.016     0.984   0.164988E-03
     0.016     0.992   0.824517E-04
     0.016     1.000    0.00000    
     0.024     0.000   0.741428E-01
     0.024     0.008   0.722874E-01
     0.024     0.016   0.704763E-01
     0.024     0.024   0.687085E-01
     0.024     0.031   0.669828E-01
     0.024     0.039   0.652983E-01
     0.024     0.047   0.636540E-01
     0.024     0.055   0.620489E-01
     0.024     0.063   0.604822E-01
     0.024     0.071   0.589527E-01
     0.024     0.079   0.574599E-01
     0.024     0.087   0.560025E-01
     0.024     0.094   0.545801E-01
     0.024     0.102   0.531914E-01
     0.024     0.110   0.518361E-01
     0.024     0.118   0.505129E-01
     0.024     0.126   0.492216E-01
     0.024     0.134   0.479609E-01
     0.024     0.142   0.467304E-01
     0.024     0.150   0.455292E-01
     0.024     0.157   0.443570E-01
     0.024     0.165   0.432125E-01
     0.024     0.173   0.420956E-01
     0.024     0.181   0.410053E-01
     0.024     0.189   0.399413E-01
     0.024     0.197   0.389025E-01
     0.024     0.205   0.378889E-01
     0.024     0.213   0.368993E-01
     0.024     0.220   0.359337E-01
     0.024     0.228   0.349911E-01
     0.024     0.236   0.340713E-01
     0.024     0.244   0.331734E-01
     0.024     0.252   0.322973E-01
     0.024     0.260   0.314421E-01
     0.024     0.268   0.306078E-01
     0.024     0.276   0.297932E-01
     0.024     0.283   0.289986E-01
     0.024     0.291   0.282229E-01
     0.024     0.299   0.274663E-01
     0.024     0.307   0.267276E-01
     0.024     0.315   0.260071E-01
     0.024     0.323   0.253038E-01
     0.024     0.331   0.246178E-01
     0.024     0.339   0.239482E-01
     0.024     0.346   0.232951E-01
     0.024     0.354   0.226576E-01
     0.024     0.362   0.220360E-01
     0.024     0.370   0.214291E-01
     0.024     0.378   0.208374E-01
     0.024     0.386   0.202598E-01
     0.024     0.394   0.196966E-01
     0.024     0.402   0.191469E-01
     0.024     0.409   0.186110E-01
     0.024     0.417   0.180878E-01
     0.024     0.425   0.175778E-01
     0.024     0.433   0.170800E-01
     0.024     0.441   0.165948E-01
     0.024     0.449   0.161211E-01
     0.024     0.457   0.156595E-01
     0.024     0.465   0.152088E-01
     0.024     0.472   0.147696E-01
     0.024     0.480   0.143409E-01
     0.024     0.488   0.139231E-01
     0.024     0.496   0.135152E-01
     0.024     0.504   0.131178E-01
     0.024     0.512   0.127298E-01
     0.024     0.520   0.123517E-01
     0.024     0.528   0.119826E-01
     0.024     0.535   0.116230E-01
     0.024     0.543   0.112719E-01
     0.024     0.551   0.109298E-01
     0.024     0.559   0.105958E-01
     0.024     0.567   0.102704E-01
     0.024     0.575   0.995258E-02
     0.024     0.583   0.964296E-02
     0.024     0.591   0.934056E-02
     0.024     0.598   0.904595E-02
     0.024     0.606   0.875816E-02
     0.024     0.614   0.847776E-02
     0.024     0.622   0.820381E-02
     0.024     0.630   0.793687E-02
     0.024     0.638   0.767602E-02
     0.024     0.646   0.742181E-02
     0.024     0.654   0.717335E-02
     0.024     0.661   0.693116E-02
     0.024     0.669   0.669438E-02
     0.024     0.677   0.646353E-02
     0.024     0.685   0.623777E-02
     0.024     0.693   0.601760E-02
     0.024     0.701   0.580220E-02
     0.024     0.709   0.559206E-02
     0.024     0.717   0.538640E-02
     0.024     0.724   0.518567E-02
     0.024     0.732   0.498912E-02
     0.024     0.740   0.479719E-02
     0.024     0.748   0.460917E-02
     0.024     0.756   0.442545E-02
     0.024     0.764   0.424536E-02
     0.024     0.772   0.406929E-02
     0.024     0.780   0.389656E-02
     0.024     0.787   0.372756E-02
     0.024     0.795   0.356165E-02
     0.024     0.803   0.339917E-02
     0.024     0.811   0.323953E-02
     0.024     0.819   0.308304E-02
     0.024     0.827   0.292914E-02
     0.024     0.835   0.277811E-02
     0.024     0.843   0.262942E-02
     0.024     0.850   0.248333E-02
     0.024     0.858   0.233935E-02
     0.024     0.866   0.219770E-02
     0.024     0.874   0.205792E-02
     0.024     0.882   0.192019E-02
     0.024     0.890   0.178412E-02
     0.024     0.898   0.164984E-02
     0.024     0.906   0.151697E-02
     0.024     0.913   0.138564E-02
     0.024     0.921   0.125551E-02
     0.024     0.929   0.112665E-02
     0.024     0.937   0.998767E-03
     0.024     0.945   0.871900E-03
     0.024     0.953   0.745789E-03
     0.024     0.961   0.620439E-03
     0.024     0.969   0.495629E-03
     0.024     0.976   0.371326E-03
     0.024     0.984   0.247346E-03
     0.024     0.992   0.123619E-03
     0.024     1.000    0.00000    
     0.031     0.000   0.987864E-01
     0.031     0.008   0.963144E-01
     0.031     0.016   0.939013E-01
     0.031     0.024   0.915459E-01
     0.031     0.031   0.892466E-01
     0.031     0.039   0.870023E-01
     0.031     0.047   0.848114E-01
     0.031     0.055   0.826729E-01
     0.031     0.063   0.805853E-01
     0.031     0.071   0.785476E-01
     0.031     0.079   0.765584E-01
     0.031     0.087   0.746168E-01
     0.031     0.094   0.727214E-01
     0.031     0.102   0.708714E-01
     0.031     0.110   0.690653E-01
     0.031     0.118   0.673026E-01
     0.031     0.126   0.655818E-01
     0.031     0.134   0.639023E-01
     0.031     0.142   0.622626E-01
     0.031     0.150   0.606624E-01
     0.031     0.157   0.591003E-01
     0.031     0.165   0.575757E-01
     0.031     0.173   0.560873E-01
     0.031     0.181   0.546348E-01
     0.031     0.189   0.532168E-01
     0.031     0.197   0.518331E-01
     0.031     0.205   0.504823E-01
     0.031     0.213   0.491641E-01
     0.031     0.220   0.478772E-01
     0.031     0.228   0.466216E-01
     0.031     0.236   0.453958E-01
     0.031     0.244   0.441998E-01
     0.031     0.252   0.430322E-01
     0.031     0.260   0.418931E-01
     0.031     0.268   0.407810E-01
     0.031     0.276   0.396961E-01
     0.031     0.283   0.386370E-01
     0.031     0.291   0.376039E-01
     0.031     0.299   0.365953E-01
     0.031     0.307   0.356116E-01
     0.031     0.315   0.346512E-01
     0.031     0.323   0.337145E-01
     0.031     0.331   0.328001E-01
     0.031     0.339   0.319083E-01
     0.031     0.346   0.310377E-01
     0.031     0.354   0.301888E-01
     0.031     0.362   0.293601E-01
     0.031     0.370   0.285520E-01
     0.031     0.378   0.277631E-01
     0.031     0.386   0.269940E-01
     0.031     0.394   0.262432E-01
     0.031     0.402   0.255112E-01
     0.031     0.409   0.247967E-01
     0.031     0.417   0.241001E-01
     0.031     0.425   0.234201E-01
     0.031     0.433   0.227574E-01
     0.031     0.441   0.221103E-01
     0.031     0.449   0.214797E-01
     0.031     0.457   0.208641E-01
     0.031     0.465   0.202642E-01
     0.031     0.472   0.196785E-01
     0.031     0.480   0.191078E-01
     0.031     0.488   0.185506E-01
     0.031     0.496   0.180077E-01
     0.031     0.504   0.174776E-01
     0.031     0.512   0.169612E-01
     0.031     0.520   0.164570E-01
     0.031     0.528   0.159657E-01
     0.031     0.535   0.154860E-01
     0.031     0.543   0.150187E-01
     0.031     0.551   0.145624E-01
     0.031     0.559   0.141179E-01
     0.031     0.567   0.136838E-01
     0.031     0.575   0.132609E-01
     0.031     0.583   0.128478E-01
     0.031     0.591   0.124454E-01
     0.031     0.598   0.120524E-01
     0.031     0.606   0.116695E-01
     0.031     0.614   0.112954E-01
     0.031     0.622   0.109309E-01
     0.031     0.630   0.105747E-01
     0.031     0.638   0.102276E-01
     0.031     0.646   0.988845E-02
     0.031     0.654   0.955786E-02
     0.031     0.661   0.923471E-02
     0.031     0.669   0.891969E-02
     0.031     0.677   0.861166E-02
     0.031     0.685   0.831130E-02
     0.031     0.693   0.801752E-02
     0.031     0.701   0.773095E-02
     0.031     0.709   0.745055E-02
     0.031     0.717   0.717694E-02
     0.031     0.724   0.690909E-02
     0.031     0.732   0.664760E-02
     0.031     0.740   0.639150E-02
     0.031     0.748   0.614135E-02
     0.031     0.756   0.589621E-02
     0.031     0.764   0.565662E-02
     0.031     0.772   0.542167E-02
     0.031     0.780   0.519187E-02
     0.031     0.787   0.496637E-02
     0.031     0.795   0.474563E-02
     0.031     0.803   0.452884E-02
     0.031     0.811   0.431643E-02
     0.031     0.819   0.410764E-02
     0.031     0.827   0.390286E-02
     0.031     0.835   0.370137E-02
     0.031     0.843   0.350351E-02
     0.031     0.850   0.330863E-02
     0.031     0.858   0.311702E-02
     0.031     0.866   0.292806E-02
     0.031     0.874   0.274203E-02
     0.031     0.882   0.255834E-02
     0.031     0.890   0.237721E-02
     0.031     0.898   0.219813E-02
     0.031     0.906   0.202126E-02
     0.031     0.913   0.184614E-02
     0.031     0.921   0.167288E-02
     0.031     0.929   0.150107E-02
     0.031     0.937   0.133079E-02
     0.031     0.945   0.116166E-02
     0.031     0.953   0.993713E-03
     0.031     0.961   0.826631E-03
     0.031     0.969   0.660393E-03
     0.031     0.976   0.494729E-03
     0.031     0.984   0.329572E-03
     0.031     0.992   0.164702E-03
     0.031     1.000    0.00000    
     0.039     0.000   0.123370    
     0.039     0.008   0.120282    
     0.039     0.016   0.117269    
     0.039     0.024   0.114327    
     0.039     0.031   0.111456    
     0.039     0.039   0.108653    
     0.039     0.047   0.105917    
     0.039     0.055   0.103246    
     0.039     0.063   0.100639    
     0.039     0.071   0.980942E-01
     0.039     0.079   0.956102E-01
     0.039     0.087   0.931852E-01
     0.039     0.094   0.908183E-01
     0.039     0.102   0.885077E-01
     0.039     0.110   0.862525E-01
     0.039     0.118   0.840509E-01
     0.039     0.126   0.819021E-01
     0.039     0.134   0.798043E-01
     0.039     0.142   0.777570E-01
     0.039     0.150   0.757583E-01
     0.039     0.157   0.738077E-01
     0.039     0.165   0.719033E-01
     0.039     0.173   0.700449E-01
     0.039     0.181   0.682306E-01
     0.039     0.189   0.664602E-01
     0.039     0.197   0.647317E-01
     0.039     0.205   0.630451E-01
     0.039     0.213   0.613985E-01
     0.039     0.220   0.597918E-01
     0.039     0.228   0.582233E-01
     0.039     0.236   0.566929E-01
     0.039     0.244   0.551988E-01
     0.039     0.252   0.537411E-01
     0.039     0.260   0.523180E-01
     0.039     0.268   0.509297E-01
     0.039     0.276   0.495743E-01
     0.039     0.283   0.482522E-01
     0.039     0.291   0.469615E-01
     0.039     0.299   0.457024E-01
     0.039     0.307   0.444733E-01
     0.039     0.315   0.432745E-01
     0.039     0.323   0.421041E-01
     0.039     0.331   0.409628E-01
     0.039     0.339   0.398485E-01
     0.039     0.346   0.387619E-01
     0.039     0.354   0.377011E-01
     0.039     0.362   0.366667E-01
     0.039     0.370   0.356569E-01
     0.039     0.378   0.346724E-01
     0.039     0.386   0.337112E-01
     0.039     0.394   0.327742E-01
     0.039     0.402   0.318594E-01
     0.039     0.409   0.309677E-01
     0.039     0.417   0.300971E-01
     0.039     0.425   0.292486E-01
     0.039     0.433   0.284202E-01
     0.039     0.441   0.276129E-01
     0.039     0.449   0.268247E-01
     0.039     0.457   0.260565E-01
     0.039     0.465   0.253066E-01
     0.039     0.472   0.245759E-01
     0.039     0.480   0.238624E-01
     0.039     0.488   0.231673E-01
     0.039     0.496   0.224886E-01
     0.039     0.504   0.218273E-01
     0.039     0.512   0.211817E-01
     0.039     0.520   0.205526E-01
     0.039     0.528   0.199385E-01
     0.039     0.535   0.193401E-01
     0.039     0.543   0.187559E-01
     0.039     0.551   0.181867E-01
     0.039     0.559   0.176309E-01
     0.039     0.567   0.170894E-01
     0.039     0.575   0.165606E-01
     0.039     0.583   0.160454E-01
     0.039     0.591   0.155422E-01
     0.039     0.598   0.150520E-01
     0.039     0.606   0.145731E-01
     0.039     0.614   0.141065E-01
     0.039     0.622   0.136507E-01
     0.039     0.630   0.132065E-01
     0.039     0.638   0.127725E-01
     0.039     0.646   0.123495E-01
     0.039     0.654   0.119361E-01
     0.039     0.661   0.115331E-01
     0.039     0.669   0.111391E-01
     0.039     0.677   0.107550E-01
     0.039     0.685   0.103793E-01
     0.039     0.693   0.100130E-01
     0.039     0.701   0.965455E-02
     0.039     0.709   0.930489E-02
     0.039     0.717   0.896268E-02
     0.039     0.724   0.862868E-02
     0.039     0.732   0.830163E-02
     0.039     0.740   0.798228E-02
     0.039     0.748   0.766941E-02
     0.039     0.756   0.736372E-02
     0.039     0.764   0.706406E-02
     0.039     0.772   0.677108E-02
     0.039     0.780   0.648368E-02
     0.039     0.787   0.620246E-02
     0.039     0.795   0.592640E-02
     0.039     0.803   0.565604E-02
     0.039     0.811   0.539041E-02
     0.039     0.819   0.513001E-02
     0.039     0.827   0.487393E-02
     0.039     0.835   0.462262E-02
     0.039     0.843   0.437522E-02
     0.039     0.850   0.413213E-02
     0.039     0.858   0.389256E-02
     0.039     0.866   0.365685E-02
     0.039     0.874   0.342426E-02
     0.039     0.882   0.319510E-02
     0.039     0.890   0.296868E-02
     0.039     0.898   0.274524E-02
     0.039     0.906   0.252416E-02
     0.039     0.913   0.230564E-02
     0.039     0.921   0.208910E-02
     0.039     0.929   0.187469E-02
     0.039     0.937   0.166190E-02
     0.039     0.945   0.145080E-02
     0.039     0.953   0.124095E-02
     0.039     0.961   0.103238E-02
     0.039     0.969   0.824701E-03
     0.039     0.976   0.617867E-03
     0.039     0.984   0.411571E-03
     0.039     0.992   0.205696E-03
     0.039     1.000    0.00000    
     0.047     0.000   0.147877    
     0.047     0.008   0.144177    
     0.047     0.016   0.140565    
     0.047     0.024   0.137039    
     0.047     0.031   0.133597    
     0.047     0.039   0.130237    
     0.047     0.047   0.126958    
     0.047     0.055   0.123756    
     0.047     0.063   0.120631    
     0.047     0.071   0.117581    
     0.047     0.079   0.114603    
     0.047     0.087   0.111697    
     0.047     0.094   0.108860    
     0.047     0.102   0.106090    
     0.047     0.110   0.103387    
     0.047     0.118   0.100748    
     0.047     0.126   0.981720E-01
     0.047     0.134   0.956579E-01
     0.047     0.142   0.932035E-01
     0.047     0.150   0.908081E-01
     0.047     0.157   0.884696E-01
     0.047     0.165   0.861874E-01
     0.047     0.173   0.839593E-01
     0.047     0.181   0.817851E-01
     0.047     0.189   0.796624E-01
     0.047     0.197   0.775911E-01
     0.047     0.205   0.755689E-01
     0.047     0.213   0.735957E-01
     0.047     0.220   0.716694E-01
     0.047     0.228   0.697898E-01
     0.047     0.236   0.679548E-01
     0.047     0.244   0.661644E-01
     0.047     0.252   0.644166E-01
     0.047     0.260   0.627114E-01
     0.047     0.268   0.610467E-01
     0.047     0.276   0.594227E-01
     0.047     0.283   0.578373E-01
     0.047     0.291   0.562908E-01
     0.047     0.299   0.547810E-01
     0.047     0.307   0.533084E-01
     0.047     0.315   0.518707E-01
     0.047     0.323   0.504686E-01
     0.047     0.331   0.490998E-01
     0.047     0.339   0.477649E-01
     0.047     0.346   0.464617E-01
     0.047     0.354   0.451909E-01
     0.047     0.362   0.439503E-01
     0.047     0.370   0.427406E-01
     0.047     0.378   0.415597E-01
     0.047     0.386   0.404084E-01
     0.047     0.394   0.392845E-01
     0.047     0.402   0.381888E-01
     0.047     0.409   0.371191E-01
     0.047     0.417   0.360764E-01
     0.047     0.425   0.350585E-01
     0.047     0.433   0.340664E-01
     0.047     0.441   0.330978E-01
     0.047     0.449   0.321539E-01
     0.047     0.457   0.312323E-01
     0.047     0.465   0.303343E-01
     0.047     0.472   0.294575E-01
     0.047     0.480   0.286032E-01
     0.047     0.488   0.277691E-01