Title="Temperature Data"
Variables="X","Y","T"
 
Zone I=    64, J=    64, F=POINT
     0.000     0.000    0.00000    
     0.000     0.016    0.00000    
     0.000     0.032    0.00000    
     0.000     0.048    0.00000    
     0.000     0.063    0.00000    
     0.000     0.079    0.00000    
     0.000     0.095    0.00000    
     0.000     0.111    0.00000    
     0.000     0.127    0.00000    
     0.000     0.143    0.00000    
     0.000     0.159    0.00000    
     0.000     0.175    0.00000    
     0.000     0.190    0.00000    
     0.000     0.206    0.00000    
     0.000     0.222    0.00000    
     0.000     0.238    0.00000    
     0.000     0.254    0.00000    
     0.000     0.270    0.00000    
     0.000     0.286    0.00000    
     0.000     0.302    0.00000    
     0.000     0.317    0.00000    
     0.000     0.333    0.00000    
     0.000     0.349    0.00000    
     0.000     0.365    0.00000    
     0.000     0.381    0.00000    
     0.000     0.397    0.00000    
     0.000     0.413    0.00000    
     0.000     0.429    0.00000    
     0.000     0.444    0.00000    
     0.000     0.460    0.00000    
     0.000     0.476    0.00000    
     0.000     0.492    0.00000    
     0.000     0.508    0.00000    
     0.000     0.524    0.00000    
     0.000     0.540    0.00000    
     0.000     0.556    0.00000    
     0.000     0.571    0.00000    
     0.000     0.587    0.00000    
     0.000     0.603    0.00000    
     0.000     0.619    0.00000    
     0.000     0.635    0.00000    
     0.000     0.651    0.00000    
     0.000     0.667    0.00000    
     0.000     0.683    0.00000    
     0.000     0.698    0.00000    
     0.000     0.714    0.00000    
     0.000     0.730    0.00000    
     0.000     0.746    0.00000    
     0.000     0.762    0.00000    
     0.000     0.778    0.00000    
     0.000     0.794    0.00000    
     0.000     0.810    0.00000    
     0.000     0.825    0.00000    
     0.000     0.841    0.00000    
     0.000     0.857    0.00000    
     0.000     0.873    0.00000    
     0.000     0.889    0.00000    
     0.000     0.905    0.00000    
     0.000     0.921    0.00000    
     0.000     0.937    0.00000    
     0.000     0.952    0.00000    
     0.000     0.968    0.00000    
     0.000     0.984    0.00000    
     0.000     1.000    0.00000    
     0.016     0.000   0.498459E-01
     0.016     0.016   0.377077E-01
     0.016     0.032   0.267351E-01
     0.016     0.048   0.176879E-01
     0.016     0.063   0.108847E-01
     0.016     0.079   0.621643E-02
     0.016     0.095   0.329050E-02
     0.016     0.111   0.161314E-02
     0.016     0.127   0.732309E-03
     0.016     0.143   0.307898E-03
     0.016     0.159   0.119953E-03
     0.016     0.175   0.433294E-04
     0.016     0.190   0.145228E-04
     0.016     0.206   0.452026E-05
     0.016     0.222   0.130762E-05
     0.016     0.238   0.351849E-06
     0.016     0.254   0.881290E-07
     0.016     0.270   0.205626E-07
     0.016     0.286   0.447211E-08
     0.016     0.302   0.907114E-09
     0.016     0.317   0.171683E-09
     0.016     0.333   0.303299E-10
     0.016     0.349   0.500270E-11
     0.016     0.365   0.770543E-12
     0.016     0.381   0.110832E-12
     0.016     0.397   0.148861E-13
     0.016     0.413   0.186661E-14
     0.016     0.429   0.218443E-15
     0.016     0.444   0.238469E-16
     0.016     0.460   0.242697E-17
     0.016     0.476   0.230091E-18
     0.016     0.492   0.203012E-19
     0.016     0.508   0.166509E-20
     0.016     0.524   0.126782E-21
     0.016     0.540   0.894733E-23
     0.016     0.556   0.584179E-24
     0.016     0.571   0.352113E-25
     0.016     0.587   0.195443E-26
     0.016     0.603   0.996106E-28
     0.016     0.619   0.464600E-29
     0.016     0.635   0.197531E-30
     0.016     0.651   0.762039E-32
     0.016     0.667   0.265300E-33
     0.016     0.683   0.828122E-35
     0.016     0.698   0.229954E-36
     0.016     0.714   0.562600E-38
     0.016     0.730   0.119828E-39
     0.016     0.746   0.218805E-41
     0.016     0.762   0.335664E-43
     0.016     0.778   0.420757E-45
     0.016     0.794   0.413873E-47
     0.016     0.810   0.299595E-49
     0.016     0.825   0.141914E-51
     0.016     0.841   0.330025E-54
     0.016     0.857    0.00000    
     0.016     0.873    0.00000    
     0.016     0.889    0.00000    
     0.016     0.905    0.00000    
     0.016     0.921    0.00000    
     0.016     0.937    0.00000    
     0.016     0.952    0.00000    
     0.016     0.968    0.00000    
     0.016     0.984    0.00000    
     0.016     1.000    0.00000    
     0.032     0.000   0.995678E-01
     0.032     0.016   0.753216E-01
     0.032     0.032   0.534037E-01
     0.032     0.048   0.353318E-01
     0.032     0.063   0.217423E-01
     0.032     0.079   0.124174E-01
     0.032     0.095   0.657282E-02
     0.032     0.111   0.322228E-02
     0.032     0.127   0.146280E-02
     0.032     0.143   0.615030E-03
     0.032     0.159   0.239607E-03
     0.032     0.175   0.865510E-04
     0.032     0.190   0.290095E-04
     0.032     0.206   0.902929E-05
     0.032     0.222   0.261199E-05
     0.032     0.238   0.702823E-06
     0.032     0.254   0.176039E-06
     0.032     0.270   0.410741E-07
     0.032     0.286   0.893311E-08
     0.032     0.302   0.181197E-08
     0.032     0.317   0.342940E-09
     0.032     0.333   0.605844E-10
     0.032     0.349   0.999296E-11
     0.032     0.365   0.153917E-11
     0.032     0.381   0.221389E-12
     0.032     0.397   0.297352E-13
     0.032     0.413   0.372857E-14
     0.032     0.429   0.436342E-15
     0.032     0.444   0.476344E-16
     0.032     0.460   0.484791E-17
     0.032     0.476   0.459610E-18
     0.032     0.492   0.405520E-19
     0.032     0.508   0.332603E-20
     0.032     0.524   0.253248E-21
     0.032     0.540   0.178724E-22
     0.032     0.556   0.116691E-23
     0.032     0.571   0.703350E-25
     0.032     0.587   0.390400E-26
     0.032     0.603   0.198974E-27
     0.032     0.619   0.928044E-29
     0.032     0.635   0.394572E-30
     0.032     0.651   0.152218E-31
     0.032     0.667   0.529940E-33
     0.032     0.683   0.165418E-34
     0.032     0.698   0.459335E-36
     0.032     0.714   0.112380E-37
     0.032     0.730   0.239359E-39
     0.032     0.746   0.437066E-41
     0.032     0.762   0.670493E-43
     0.032     0.778   0.840469E-45
     0.032     0.794   0.826717E-47
     0.032     0.810   0.598444E-49
     0.032     0.825   0.283476E-51
     0.032     0.841   0.659230E-54
     0.032     0.857    0.00000    
     0.032     0.873    0.00000    
     0.032     0.889    0.00000    
     0.032     0.905    0.00000    
     0.032     0.921    0.00000    
     0.032     0.937    0.00000    
     0.032     0.952    0.00000    
     0.032     0.968    0.00000    
     0.032     0.984    0.00000    
     0.032     1.000    0.00000    
     0.048     0.000   0.149042    
     0.048     0.016   0.112748    
     0.048     0.032   0.799396E-01
     0.048     0.048   0.528879E-01
     0.048     0.063   0.325458E-01
     0.048     0.079   0.185875E-01
     0.048     0.095   0.983879E-02
     0.048     0.111   0.482340E-02
     0.048     0.127   0.218965E-02
     0.048     0.143   0.920634E-03
     0.048     0.159   0.358666E-03
     0.048     0.175   0.129557E-03
     0.048     0.190   0.434240E-04
     0.048     0.206   0.135159E-04
     0.048     0.222   0.390987E-05
     0.048     0.238   0.105205E-05
     0.048     0.254   0.263511E-06
     0.048     0.270   0.614835E-07
     0.048     0.286   0.133719E-07
     0.048     0.302   0.271233E-08
     0.048     0.317   0.513344E-09
     0.048     0.333   0.906882E-10
     0.048     0.349   0.149584E-10
     0.048     0.365   0.230397E-11
     0.048     0.381   0.331396E-12
     0.048     0.397   0.445104E-13
     0.048     0.413   0.558127E-14
     0.048     0.429   0.653157E-15
     0.048     0.444   0.713036E-16
     0.048     0.460   0.725679E-17
     0.048     0.476   0.687986E-18
     0.048     0.492   0.607019E-19
     0.048     0.508   0.497871E-20
     0.048     0.524   0.379085E-21
     0.048     0.540   0.267531E-22
     0.048     0.556   0.174673E-23
     0.048     0.571   0.105284E-24
     0.048     0.587   0.584386E-26
     0.048     0.603   0.297842E-27
     0.048     0.619   0.138918E-28
     0.048     0.635   0.590631E-30
     0.048     0.651   0.227854E-31
     0.048     0.667   0.793263E-33
     0.048     0.683   0.247613E-34
     0.048     0.698   0.687575E-36
     0.048     0.714   0.168221E-37
     0.048     0.730   0.358294E-39
     0.048     0.746   0.654240E-41
     0.048     0.762   0.100366E-42
     0.048     0.778   0.125809E-44
     0.048     0.794   0.123751E-46
     0.048     0.810   0.895806E-49
     0.048     0.825   0.424333E-51
     0.048     0.841   0.986796E-54
     0.048     0.857    0.00000    
     0.048     0.873    0.00000    
     0.048     0.889    0.00000    
     0.048     0.905    0.00000    
     0.048     0.921    0.00000    
     0.048     0.937    0.00000    
     0.048     0.952    0.00000    
     0.048     0.968    0.00000    
     0.048     0.984    0.00000    
     0.048     1.000    0.00000    
     0.063     0.000   0.198146    
     0.063     0.016   0.149895    
     0.063     0.032   0.106277    
     0.063     0.048   0.703125E-01
     0.063     0.063   0.432684E-01
     0.063     0.079   0.247114E-01
     0.063     0.095   0.130803E-01
     0.063     0.111   0.641253E-02
     0.063     0.127   0.291106E-02
     0.063     0.143   0.122395E-02
     0.063     0.159   0.476833E-03
     0.063     0.175   0.172242E-03
     0.063     0.190   0.577306E-04
     0.063     0.206   0.179688E-04
     0.063     0.222   0.519803E-05
     0.063     0.238   0.139866E-05
     0.063     0.254   0.350328E-06
     0.063     0.270   0.817401E-07
     0.063     0.286   0.177774E-07
     0.063     0.302   0.360594E-08
     0.063     0.317   0.682471E-09
     0.063     0.333   0.120567E-09
     0.063     0.349   0.198866E-10
     0.063     0.365   0.306305E-11
     0.063     0.381   0.440579E-12
     0.063     0.397   0.591749E-13
     0.063     0.413   0.742009E-14
     0.063     0.429   0.868348E-15
     0.063     0.444   0.947955E-16
     0.063     0.460   0.964764E-17
     0.063     0.476   0.914652E-18
     0.063     0.492   0.807009E-19
     0.063     0.508   0.661901E-20
     0.063     0.524   0.503979E-21
     0.063     0.540   0.355672E-22
     0.063     0.556   0.232221E-23
     0.063     0.571   0.139971E-24
     0.063     0.587   0.776920E-26
     0.063     0.603   0.395970E-27
     0.063     0.619   0.184687E-28
     0.063     0.635   0.785222E-30
     0.063     0.651   0.302924E-31
     0.063     0.667   0.105461E-32
     0.063     0.683   0.329193E-34
     0.063     0.698   0.914106E-36
     0.063     0.714   0.223643E-37
     0.063     0.730   0.476339E-39
     0.063     0.746   0.869787E-41
     0.063     0.762   0.133432E-42
     0.063     0.778   0.167258E-44
     0.063     0.794   0.164522E-46
     0.063     0.810   0.119094E-48
     0.063     0.825   0.564134E-51
     0.063     0.841   0.131191E-53
     0.063     0.857    0.00000    
     0.063     0.873    0.00000    
     0.063     0.889    0.00000    
     0.063     0.905    0.00000    
     0.063     0.921    0.00000    
     0.063     0.937    0.00000    
     0.063     0.952    0.00000    
     0.063     0.968    0.00000    
     0.063     0.984    0.00000    
     0.063     1.000    0.00000    
     0.079     0.000   0.246757    
     0.079     0.016   0.186668    
     0.079     0.032   0.132350    
     0.079     0.048   0.875623E-01
     0.079     0.063   0.538835E-01
     0.079     0.079   0.307738E-01
     0.079     0.095   0.162893E-01
     0.079     0.111   0.798572E-02
     0.079     0.127   0.362523E-02
     0.079     0.143   0.152422E-02
     0.079     0.159   0.593815E-03
     0.079     0.175   0.214498E-03
     0.079     0.190   0.718937E-04
     0.079     0.206   0.223771E-04
     0.079     0.222   0.647326E-05
     0.079     0.238   0.174179E-05
     0.079     0.254   0.436274E-06
     0.079     0.270   0.101793E-06
     0.079     0.286   0.221388E-07
     0.079     0.302   0.449058E-08
     0.079     0.317   0.849902E-09
     0.079     0.333   0.150145E-09
     0.079     0.349   0.247654E-10
     0.079     0.365   0.381450E-11
     0.079     0.381   0.548666E-12
     0.079     0.397   0.736923E-13
     0.079     0.413   0.924046E-14
     0.079     0.429   0.108138E-14
     0.079     0.444   0.118052E-15
     0.079     0.460   0.120145E-16
     0.079     0.476   0.113904E-17
     0.079     0.492   0.100499E-18
     0.079     0.508   0.824285E-20
     0.079     0.524   0.627621E-21
     0.079     0.540   0.442929E-22
     0.079     0.556   0.289192E-23
     0.079     0.571   0.174310E-24
     0.079     0.587   0.967522E-26
     0.079     0.603   0.493113E-27
     0.079     0.619   0.229996E-28
     0.079     0.635   0.977861E-30
     0.079     0.651   0.377240E-31
     0.079     0.667   0.131334E-32
     0.079     0.683   0.409954E-34
     0.079     0.698   0.113836E-35
     0.079     0.714   0.278510E-37
     0.079     0.730   0.593200E-39
     0.079     0.746   0.108317E-40
     0.079     0.762   0.166167E-42
     0.079     0.778   0.208292E-44
     0.079     0.794   0.204884E-46
     0.079     0.810   0.148311E-48
     0.079     0.825   0.702534E-51
     0.079     0.841   0.163376E-53
     0.079     0.857    0.00000    
     0.079     0.873    0.00000    
     0.079     0.889    0.00000    
     0.079     0.905    0.00000    
     0.079     0.921    0.00000    
     0.079     0.937    0.00000    
     0.079     0.952    0.00000    
     0.079     0.968    0.00000    
     0.079     0.984    0.00000    
     0.079     1.000    0.00000    
     0.095     0.000   0.294755    
     0.095     0.016   0.222978    
     0.095     0.032   0.158093    
     0.095     0.048   0.104594    
     0.095     0.063   0.643646E-01
     0.095     0.079   0.367598E-01
     0.095     0.095   0.194578E-01
     0.095     0.111   0.953906E-02
     0.095     0.127   0.433038E-02
     0.095     0.143   0.182070E-02
     0.095     0.159   0.709320E-03
     0.095     0.175   0.256221E-03
     0.095     0.190   0.858780E-04
     0.095     0.206   0.267298E-04
     0.095     0.222   0.773240E-05
     0.095     0.238   0.208060E-05
     0.095     0.254   0.521136E-06
     0.095     0.270   0.121594E-06
     0.095     0.286   0.264451E-07
     0.095     0.302   0.536407E-08
     0.095     0.317   0.101522E-08
     0.095     0.333   0.179351E-09
     0.095     0.349   0.295826E-10
     0.095     0.365   0.455648E-11
     0.095     0.381   0.655389E-12
     0.095     0.397   0.880265E-13
     0.095     0.413   0.110379E-13
     0.095     0.429   0.129172E-14
     0.095     0.444   0.141014E-15
     0.095     0.460   0.143515E-16
     0.095     0.476   0.136060E-17
     0.095     0.492   0.120048E-18
     0.095     0.508   0.984620E-20
     0.095     0.524   0.749702E-21
     0.095     0.540   0.529085E-22
     0.095     0.556   0.345444E-23
     0.095     0.571   0.208216E-24
     0.095     0.587   0.115572E-25
     0.095     0.603   0.589030E-27
     0.095     0.619   0.274733E-28
     0.095     0.635   0.116807E-29
     0.095     0.651   0.450619E-31
     0.095     0.667   0.156881E-32
     0.095     0.683   0.489696E-34
     0.095     0.698   0.135979E-35
     0.095     0.714   0.332684E-37
     0.095     0.730   0.708585E-39
     0.095     0.746   0.129386E-40
     0.095     0.762   0.198489E-42
     0.095     0.778   0.248808E-44
     0.095     0.794   0.244737E-46
     0.095     0.810   0.177160E-48
     0.095     0.825   0.839186E-51
     0.095     0.841   0.195155E-53
     0.095     0.857    0.00000    
     0.095     0.873    0.00000    
     0.095     0.889    0.00000    
     0.095     0.905    0.00000    
     0.095     0.921    0.00000    
     0.095     0.937    0.00000    
     0.095     0.952    0.00000    
     0.095     0.968    0.00000    
     0.095     0.984    0.00000    
     0.095     1.000    0.00000    
     0.111     0.000   0.342020    
     0.111     0.016   0.258733    
     0.111     0.032   0.183444    
     0.111     0.048   0.121366    
     0.111     0.063   0.746857E-01
     0.111     0.079   0.426543E-01
     0.111     0.095   0.225779E-01
     0.111     0.111   0.110687E-01
     0.111     0.127   0.502477E-02
     0.111     0.143   0.211266E-02
     0.111     0.159   0.823062E-03
     0.111     0.175   0.297307E-03
     0.111     0.190   0.996488E-04
     0.111     0.206   0.310160E-04
     0.111     0.222   0.897232E-05
     0.111     0.238   0.241423E-05
     0.111     0.254   0.604702E-06
     0.111     0.270   0.141092E-06
     0.111     0.286   0.306856E-07
     0.111     0.302   0.622421E-08
     0.111     0.317   0.117801E-08
     0.111     0.333   0.208110E-09
     0.111     0.349   0.343263E-10
     0.111     0.365   0.528712E-11
     0.111     0.381   0.760483E-12
     0.111     0.397   0.102142E-12
     0.111     0.413   0.128078E-13
     0.111     0.429   0.149886E-14
     0.111     0.444   0.163626E-15
     0.111     0.460   0.166528E-16
     0.111     0.476   0.157878E-17
     0.111     0.492   0.139298E-18
     0.111     0.508   0.114251E-19
     0.111     0.524   0.869919E-21
     0.111     0.540   0.613926E-22
     0.111     0.556   0.400838E-23
     0.111     0.571   0.241604E-24
     0.111     0.587   0.134104E-25
     0.111     0.603   0.683483E-27
     0.111     0.619   0.318787E-28
     0.111     0.635   0.135537E-29
     0.111     0.651   0.522877E-31
     0.111     0.667   0.182037E-32
     0.111     0.683   0.568220E-34
     0.111     0.698   0.157784E-35
     0.111     0.714   0.386031E-37
     0.111     0.730   0.822209E-39
     0.111     0.746   0.150134E-40
     0.111     0.762   0.230317E-42
     0.111     0.778   0.288705E-44
     0.111     0.794   0.283981E-46
     0.111     0.810   0.205568E-48
     0.111     0.825   0.973753E-51
     0.111     0.841   0.226449E-53
     0.111     0.857    0.00000    
     0.111     0.873    0.00000    
     0.111     0.889    0.00000    
     0.111     0.905    0.00000    
     0.111     0.921    0.00000    
     0.111     0.937    0.00000    
     0.111     0.952    0.00000    
     0.111     0.968    0.00000    
     0.111     0.984    0.00000    
     0.111     1.000    0.00000    
     0.127     0.000   0.388435    
     0.127     0.016   0.293845    
     0.127     0.032   0.208339    
     0.127     0.048   0.137837    
     0.127     0.063   0.848210E-01
     0.127     0.079   0.484429E-01
     0.127     0.095   0.256419E-01
     0.127     0.111   0.125708E-01
     0.127     0.127   0.570667E-02
     0.127     0.143   0.239936E-02
     0.127     0.159   0.934757E-03
     0.127     0.175   0.337653E-03
     0.127     0.190   0.113172E-03
     0.127     0.206   0.352251E-04
     0.127     0.222   0.101899E-04
     0.127     0.238   0.274186E-05
     0.127     0.254   0.686764E-06
     0.127     0.270   0.160239E-06
     0.127     0.286   0.348499E-07
     0.127     0.302   0.706888E-08
     0.127     0.317   0.133788E-08
     0.127     0.333   0.236352E-09
     0.127     0.349   0.389846E-10
     0.127     0.365   0.600463E-11
     0.127     0.381   0.863686E-12
     0.127     0.397   0.116003E-12
     0.127     0.413   0.145459E-13
     0.127     0.429   0.170226E-14
     0.127     0.444   0.185832E-15
     0.127     0.460   0.189127E-16
     0.127     0.476   0.179303E-17
     0.127     0.492   0.158202E-18
     0.127     0.508   0.129755E-19
     0.127     0.524   0.987974E-21
     0.127     0.540   0.697240E-22
     0.127     0.556   0.455234E-23
     0.127     0.571   0.274392E-24
     0.127     0.587   0.152303E-25
     0.127     0.603   0.776237E-27
     0.127     0.619   0.362049E-28
     0.127     0.635   0.153931E-29
     0.127     0.651   0.593835E-31
     0.127     0.667   0.206741E-32
     0.127     0.683   0.645332E-34
     0.127     0.698   0.179196E-35
     0.127     0.714   0.438418E-37
     0.127     0.730   0.933789E-39
     0.127     0.746   0.170508E-40
     0.127     0.762   0.261573E-42
     0.127     0.778   0.327884E-44
     0.127     0.794   0.322519E-46
     0.127     0.810   0.233466E-48
     0.127     0.825   0.110590E-50
     0.127     0.841   0.257179E-53
     0.127     0.857    0.00000    
     0.127     0.873    0.00000    
     0.127     0.889    0.00000    
     0.127     0.905    0.00000    
     0.127     0.921    0.00000    
     0.127     0.937    0.00000    
     0.127     0.952    0.00000    
     0.127     0.968    0.00000    
     0.127     0.984    0.00000    
     0.127     1.000    0.00000    
     0.143     0.000   0.433884    
     0.143     0.016   0.328226    
     0.143     0.032   0.232716    
     0.143     0.048   0.153964    
     0.143     0.063   0.947456E-01
     0.143     0.079   0.541109E-01
     0.143     0.095   0.286422E-01
     0.143     0.111   0.140416E-01
     0.143     0.127   0.637438E-02
     0.143     0.143   0.268010E-02
     0.143     0.159   0.104413E-02
     0.143     0.175   0.377161E-03
     0.143     0.190   0.126414E-03
     0.143     0.206   0.393467E-04
     0.143     0.222   0.113822E-04
     0.143     0.238   0.306267E-05
     0.143     0.254   0.767119E-06
     0.143     0.270   0.178987E-06
     0.143     0.286   0.389275E-07
     0.143     0.302   0.789598E-08
     0.143     0.317   0.149442E-08
     0.143     0.333   0.264007E-09
     0.143     0.349   0.435460E-10
     0.143     0.365   0.670720E-11
     0.143     0.381   0.964742E-12
     0.143     0.397   0.129576E-12
     0.143     0.413   0.162479E-13
     0.143     0.429   0.190144E-14
     0.143     0.444   0.207575E-15
     0.143     0.460   0.211256E-16
     0.143     0.476   0.200283E-17
     0.143     0.492   0.176712E-18
     0.143     0.508   0.144937E-19
     0.143     0.524   0.110357E-20
     0.143     0.540   0.778821E-22
     0.143     0.556   0.508499E-23
     0.143     0.571   0.306497E-24
     0.143     0.587   0.170123E-25
     0.143     0.603   0.867061E-27
     0.143     0.619   0.404411E-28
     0.143     0.635   0.171941E-29
     0.143     0.651   0.663317E-31
     0.143     0.667   0.230931E-32
     0.143     0.683   0.720839E-34
     0.143     0.698   0.200163E-35
     0.143     0.714   0.489715E-37
     0.143     0.730   0.104305E-38
     0.143     0.746   0.190459E-40
     0.143     0.762   0.292179E-42
     0.143     0.778   0.366248E-44
     0.143     0.794   0.360256E-46
     0.143     0.810   0.260782E-48
     0.143     0.825   0.123529E-50
     0.143     0.841   0.287271E-53
     0.143     0.857    0.00000    
     0.143     0.873    0.00000    
     0.143     0.889    0.00000    
     0.143     0.905    0.00000    
     0.143     0.921    0.00000    
     0.143     0.937    0.00000    
     0.143     0.952    0.00000    
     0.143     0.968    0.00000    
     0.143     0.984    0.00000    
     0.143     1.000    0.00000    
     0.159     0.000   0.478254    
     0.159     0.016   0.361792    
     0.159     0.032   0.256514    
     0.159     0.048   0.169709    
     0.159     0.063   0.104435    
     0.159     0.079   0.596445E-01
     0.159     0.095   0.315712E-01
     0.159     0.111   0.154776E-01
     0.159     0.127   0.702625E-02
     0.159     0.143   0.295417E-02
     0.159     0.159   0.115090E-02
     0.159     0.175   0.415730E-03
     0.159     0.190   0.139341E-03
     0.159     0.206   0.433704E-04
     0.159     0.222   0.125462E-04
     0.159     0.238   0.337587E-05
     0.159     0.254   0.845567E-06
     0.159     0.270   0.197291E-06
     0.159     0.286   0.429084E-07
     0.159     0.302   0.870345E-08
     0.159     0.317   0.164724E-08
     0.159     0.333   0.291005E-09
     0.159     0.349   0.479992E-10
     0.159     0.365   0.739310E-11
     0.159     0.381   0.106340E-11
     0.159     0.397   0.142827E-12
     0.159     0.413   0.179094E-13
     0.159     0.429   0.209588E-14
     0.159     0.444   0.228802E-15
     0.159     0.460   0.232859E-16
     0.159     0.476   0.220764E-17
     0.159     0.492   0.194783E-18
     0.159     0.508   0.159759E-19
     0.159     0.524   0.121643E-20
     0.159     0.540   0.858466E-22
     0.159     0.556   0.560500E-23
     0.159     0.571   0.337840E-24
     0.159     0.587   0.187521E-25
     0.159     0.603   0.955729E-27
     0.159     0.619   0.445767E-28
     0.159     0.635   0.189525E-29
     0.159     0.651   0.731150E-31
     0.159     0.667   0.254546E-32
     0.159     0.683   0.794554E-34
     0.159     0.698   0.220632E-35
     0.159     0.714   0.539795E-37
     0.159     0.730   0.114971E-38
     0.159     0.746   0.209936E-40
     0.159     0.762   0.322058E-42
     0.159     0.778   0.403702E-44
     0.159     0.794   0.397097E-46
     0.159     0.810   0.287451E-48
     0.159     0.825   0.136162E-50
     0.159     0.841   0.316648E-53
     0.159     0.857    0.00000    
     0.159     0.873    0.00000    
     0.159     0.889    0.00000    
     0.159     0.905    0.00000    
     0.159     0.921    0.00000    
     0.159     0.937    0.00000    
     0.159     0.952    0.00000    
     0.159     0.968    0.00000    
     0.159     0.984    0.00000    
     0.159     1.000    0.00000    
     0.175     0.000   0.521435    
     0.175     0.016   0.394458    
     0.175     0.032   0.279674    
     0.175     0.048   0.185032    
     0.175     0.063   0.113864    
     0.175     0.079   0.650297E-01
     0.175     0.095   0.344217E-01
     0.175     0.111   0.168750E-01
     0.175     0.127   0.766064E-02
     0.175     0.143   0.322090E-02
     0.175     0.159   0.125482E-02
     0.175     0.175   0.453266E-03
     0.175     0.190   0.151922E-03
     0.175     0.206   0.472862E-04
     0.175     0.222   0.136790E-04
     0.175     0.238   0.368067E-05
     0.175     0.254   0.921913E-06
     0.175     0.270   0.215105E-06
     0.175     0.286   0.467825E-07
     0.175     0.302   0.948927E-08
     0.175     0.317   0.179597E-08
     0.175     0.333   0.317279E-09
     0.175     0.349   0.523330E-10
     0.175     0.365   0.806061E-11
     0.175     0.381   0.115941E-11
     0.175     0.397   0.155723E-12
     0.175     0.413   0.195265E-13
     0.175     0.429   0.228512E-14
     0.175     0.444   0.249461E-15
     0.175     0.460   0.253884E-16
     0.175     0.476   0.240697E-17
     0.175     0.492   0.212370E-18
     0.175     0.508   0.174184E-19
     0.175     0.524   0.132626E-20
     0.175     0.540   0.935976E-22
     0.175     0.556   0.611107E-23
     0.175     0.571   0.368343E-24
     0.175     0.587   0.204452E-25
     0.175     0.603   0.104202E-26
     0.175     0.619   0.486015E-28
     0.175     0.635   0.206637E-29
     0.175     0.651   0.797165E-31
     0.175     0.667   0.277529E-32
     0.175     0.683   0.866294E-34
     0.175     0.698   0.240553E-35
     0.175     0.714   0.588533E-37
     0.175     0.730   0.125352E-38
     0.175     0.746   0.228891E-40
     0.175     0.762   0.351136E-42
     0.175     0.778   0.440152E-44
     0.175     0.794   0.432950E-46
     0.175     0.810   0.313404E-48
     0.175     0.825   0.148456E-50
     0.175     0.841   0.345238E-53
     0.175     0.857    0.00000    
     0.175     0.873    0.00000    
     0.175     0.889    0.00000    
     0.175     0.905    0.00000    
     0.175     0.921    0.00000    
     0.175     0.937    0.00000    
     0.175     0.952    0.00000    
     0.175     0.968    0.00000    
     0.175     0.984    0.00000    
     0.175     1.000    0.00000    
     0.190     0.000   0.563320    
     0.190     0.016   0.426143    
     0.190     0.032   0.302140    
     0.190     0.048   0.199895    
     0.190     0.063   0.123010    
     0.190     0.079   0.702533E-01
     0.190     0.095   0.371867E-01
     0.190     0.111   0.182305E-01
     0.190     0.127   0.827599E-02
     0.190     0.143   0.347963E-02
     0.190     0.159   0.135561E-02
     0.190     0.175   0.489675E-03
     0.190     0.190   0.164125E-03
     0.190     0.206   0.510846E-04
     0.190     0.222   0.147777E-04
     0.190     0.238   0.397633E-05
     0.190     0.254   0.995966E-06
     0.190     0.270   0.232383E-06
     0.190     0.286   0.505404E-07
     0.190     0.302   0.102515E-07
     0.190     0.317   0.194023E-08
     0.190     0.333   0.342765E-09
     0.190     0.349   0.565367E-10
     0.190     0.365   0.870809E-11
     0.190     0.381   0.125254E-11
     0.190     0.397   0.168231E-12
     0.190     0.413   0.210950E-13
     0.190     0.429   0.246867E-14
     0.190     0.444   0.269499E-15
     0.190     0.460   0.274278E-16
     0.190     0.476   0.260031E-17
     0.190     0.492   0.229429E-18
     0.190     0.508   0.188175E-19
     0.190     0.524   0.143279E-20
     0.190     0.540   0.101116E-21
     0.190     0.556   0.660195E-23
     0.190     0.571   0.397931E-24
     0.190     0.587   0.220875E-25
     0.190     0.603   0.112572E-26
     0.190     0.619   0.525055E-28
     0.190     0.635   0.223235E-29
     0.190     0.651   0.861198E-31
     0.190     0.667   0.299822E-32
     0.190     0.683   0.935880E-34
     0.190     0.698   0.259876E-35
     0.190     0.714   0.635807E-37
     0.190     0.730   0.135421E-38
     0.190     0.746   0.247276E-40
     0.190     0.762   0.379342E-42
     0.190     0.778   0.475508E-44
     0.190     0.794   0.467728E-46
     0.190     0.810   0.338579E-48
     0.190     0.825   0.160381E-50
     0.190     0.841   0.372970E-53
     0.190     0.857    0.00000    
     0.190     0.873    0.00000    
     0.190     0.889    0.00000    
     0.190     0.905    0.00000    
     0.190     0.921    0.00000    
     0.190     0.937    0.00000    
     0.190     0.952    0.00000    
     0.190     0.968    0.00000    
     0.190     0.984    0.00000    