Title="Temperature Data"
Variables="X","Y","T"
 
Zone I=    64, J=    64, F=POINT
     0.000     0.000    0.00000    
     0.000     0.016    0.00000    
     0.000     0.032    0.00000    
     0.000     0.048    0.00000    
     0.000     0.063    0.00000    
     0.000     0.079    0.00000    
     0.000     0.095    0.00000    
     0.000     0.111    0.00000    
     0.000     0.127    0.00000    
     0.000     0.143    0.00000    
     0.000     0.159    0.00000    
     0.000     0.175    0.00000    
     0.000     0.190    0.00000    
     0.000     0.206    0.00000    
     0.000     0.222    0.00000    
     0.000     0.238    0.00000    
     0.000     0.254    0.00000    
     0.000     0.270    0.00000    
     0.000     0.286    0.00000    
     0.000     0.302    0.00000    
     0.000     0.317    0.00000    
     0.000     0.333    0.00000    
     0.000     0.349    0.00000    
     0.000     0.365    0.00000    
     0.000     0.381    0.00000    
     0.000     0.397    0.00000    
     0.000     0.413    0.00000    
     0.000     0.429    0.00000    
     0.000     0.444    0.00000    
     0.000     0.460    0.00000    
     0.000     0.476    0.00000    
     0.000     0.492    0.00000    
     0.000     0.508    0.00000    
     0.000     0.524    0.00000    
     0.000     0.540    0.00000    
     0.000     0.556    0.00000    
     0.000     0.571    0.00000    
     0.000     0.587    0.00000    
     0.000     0.603    0.00000    
     0.000     0.619    0.00000    
     0.000     0.635    0.00000    
     0.000     0.651    0.00000    
     0.000     0.667    0.00000    
     0.000     0.683    0.00000    
     0.000     0.698    0.00000    
     0.000     0.714    0.00000    
     0.000     0.730    0.00000    
     0.000     0.746    0.00000    
     0.000     0.762    0.00000    
     0.000     0.778    0.00000    
     0.000     0.794    0.00000    
     0.000     0.810    0.00000    
     0.000     0.825    0.00000    
     0.000     0.841    0.00000    
     0.000     0.857    0.00000    
     0.000     0.873    0.00000    
     0.000     0.889    0.00000    
     0.000     0.905    0.00000    
     0.000     0.921    0.00000    
     0.000     0.937    0.00000    
     0.000     0.952    0.00000    
     0.000     0.968    0.00000    
     0.000     0.984    0.00000    
     0.000     1.000    0.00000    
     0.016     0.000   0.498459E-01
     0.016     0.016   0.354802E-01
     0.016     0.032   0.229924E-01
     0.016     0.048   0.134801E-01
     0.016     0.063   0.712246E-02
     0.016     0.079   0.338483E-02
     0.016     0.095   0.144600E-02
     0.016     0.111   0.555502E-03
     0.016     0.127   0.192094E-03
     0.016     0.143   0.598701E-04
     0.016     0.159   0.168420E-04
     0.016     0.175   0.428226E-05
     0.016     0.190   0.985403E-06
     0.016     0.206   0.205449E-06
     0.016     0.222   0.388451E-07
     0.016     0.238   0.666491E-08
     0.016     0.254   0.103810E-08
     0.016     0.270   0.146791E-09
     0.016     0.286   0.188390E-10
     0.016     0.302   0.219307E-11
     0.016     0.317   0.231337E-12
     0.016     0.333   0.220808E-13
     0.016     0.349   0.190341E-14
     0.016     0.365   0.147821E-15
     0.016     0.381   0.103107E-16
     0.016     0.397   0.643468E-18
     0.016     0.413   0.357608E-19
     0.016     0.429   0.175955E-20
     0.016     0.444   0.760979E-22
     0.016     0.460   0.286683E-23
     0.016     0.476   0.930069E-25
     0.016     0.492   0.256017E-26
     0.016     0.508   0.586251E-28
     0.016     0.524   0.108664E-29
     0.016     0.540   0.156631E-31
     0.016     0.556   0.164726E-33
     0.016     0.571   0.112432E-35
     0.016     0.587   0.373775E-38
     0.016     0.603    0.00000    
     0.016     0.619    0.00000    
     0.016     0.635    0.00000    
     0.016     0.651    0.00000    
     0.016     0.667    0.00000    
     0.016     0.683    0.00000    
     0.016     0.698    0.00000    
     0.016     0.714    0.00000    
     0.016     0.730    0.00000    
     0.016     0.746    0.00000    
     0.016     0.762    0.00000    
     0.016     0.778    0.00000    
     0.016     0.794    0.00000    
     0.016     0.810    0.00000    
     0.016     0.825    0.00000    
     0.016     0.841    0.00000    
     0.016     0.857    0.00000    
     0.016     0.873    0.00000    
     0.016     0.889    0.00000    
     0.016     0.905    0.00000    
     0.016     0.921    0.00000    
     0.016     0.937    0.00000    
     0.016     0.952    0.00000    
     0.016     0.968    0.00000    
     0.016     0.984    0.00000    
     0.016     1.000    0.00000    
     0.032     0.000   0.995678E-01
     0.032     0.016   0.708721E-01
     0.032     0.032   0.459277E-01
     0.032     0.048   0.269268E-01
     0.032     0.063   0.142272E-01
     0.032     0.079   0.676125E-02
     0.032     0.095   0.288840E-02
     0.032     0.111   0.110962E-02
     0.032     0.127   0.383710E-03
     0.032     0.143   0.119591E-03
     0.032     0.159   0.336421E-04
     0.032     0.175   0.855388E-05
     0.032     0.190   0.196836E-05
     0.032     0.206   0.410387E-06
     0.032     0.222   0.775937E-07
     0.032     0.238   0.133133E-07
     0.032     0.254   0.207362E-08
     0.032     0.270   0.293216E-09
     0.032     0.286   0.376313E-10
     0.032     0.302   0.438069E-11
     0.032     0.317   0.462099E-12
     0.032     0.333   0.441066E-13
     0.032     0.349   0.380209E-14
     0.032     0.365   0.295274E-15
     0.032     0.381   0.205957E-16
     0.032     0.397   0.128534E-17
     0.032     0.413   0.714327E-19
     0.032     0.429   0.351472E-20
     0.032     0.444   0.152007E-21
     0.032     0.460   0.572654E-23
     0.032     0.476   0.185783E-24
     0.032     0.492   0.511397E-26
     0.032     0.508   0.117104E-27
     0.032     0.524   0.217057E-29
     0.032     0.540   0.312873E-31
     0.032     0.556   0.329043E-33
     0.032     0.571   0.224584E-35
     0.032     0.587   0.746620E-38
     0.032     0.603    0.00000    
     0.032     0.619    0.00000    
     0.032     0.635    0.00000    
     0.032     0.651    0.00000    
     0.032     0.667    0.00000    
     0.032     0.683    0.00000    
     0.032     0.698    0.00000    
     0.032     0.714    0.00000    
     0.032     0.730    0.00000    
     0.032     0.746    0.00000    
     0.032     0.762    0.00000    
     0.032     0.778    0.00000    
     0.032     0.794    0.00000    
     0.032     0.810    0.00000    
     0.032     0.825    0.00000    
     0.032     0.841    0.00000    
     0.032     0.857    0.00000    
     0.032     0.873    0.00000    
     0.032     0.889    0.00000    
     0.032     0.905    0.00000    
     0.032     0.921    0.00000    
     0.032     0.937    0.00000    
     0.032     0.952    0.00000    
     0.032     0.968    0.00000    
     0.032     0.984    0.00000    
     0.032     1.000    0.00000    
     0.048     0.000   0.149042    
     0.048     0.016   0.106088    
     0.048     0.032   0.687487E-01
     0.048     0.048   0.403064E-01
     0.048     0.063   0.212966E-01
     0.048     0.079   0.101209E-01
     0.048     0.095   0.432362E-02
     0.048     0.111   0.166099E-02
     0.048     0.127   0.574372E-03
     0.048     0.143   0.179015E-03
     0.048     0.159   0.503586E-04
     0.048     0.175   0.128042E-04
     0.048     0.190   0.294642E-05
     0.048     0.206   0.614305E-06
     0.048     0.222   0.116149E-06
     0.048     0.238   0.199285E-07
     0.048     0.254   0.310398E-08
     0.048     0.270   0.438913E-09
     0.048     0.286   0.563299E-10
     0.048     0.302   0.655742E-11
     0.048     0.317   0.691712E-12
     0.048     0.333   0.660229E-13
     0.048     0.349   0.569131E-14
     0.048     0.365   0.441993E-15
     0.048     0.381   0.308295E-16
     0.048     0.397   0.192401E-17
     0.048     0.413   0.106927E-18
     0.048     0.429   0.526115E-20
     0.048     0.444   0.227537E-21
     0.048     0.460   0.857201E-23
     0.048     0.476   0.278096E-24
     0.048     0.492   0.765506E-26
     0.048     0.508   0.175293E-27
     0.048     0.524   0.324911E-29
     0.048     0.540   0.468338E-31
     0.048     0.556   0.492541E-33
     0.048     0.571   0.336177E-35
     0.048     0.587   0.111761E-37
     0.048     0.603    0.00000    
     0.048     0.619    0.00000    
     0.048     0.635    0.00000    
     0.048     0.651    0.00000    
     0.048     0.667    0.00000    
     0.048     0.683    0.00000    
     0.048     0.698    0.00000    
     0.048     0.714    0.00000    
     0.048     0.730    0.00000    
     0.048     0.746    0.00000    
     0.048     0.762    0.00000    
     0.048     0.778    0.00000    
     0.048     0.794    0.00000    
     0.048     0.810    0.00000    
     0.048     0.825    0.00000    
     0.048     0.841    0.00000    
     0.048     0.857    0.00000    
     0.048     0.873    0.00000    
     0.048     0.889    0.00000    
     0.048     0.905    0.00000    
     0.048     0.921    0.00000    
     0.048     0.937    0.00000    
     0.048     0.952    0.00000    
     0.048     0.968    0.00000    
     0.048     0.984    0.00000    
     0.048     1.000    0.00000    
     0.063     0.000   0.198146    
     0.063     0.016   0.141040    
     0.063     0.032   0.913989E-01
     0.063     0.048   0.535859E-01
     0.063     0.063   0.283130E-01
     0.063     0.079   0.134553E-01
     0.063     0.095   0.574810E-02
     0.063     0.111   0.220822E-02
     0.063     0.127   0.763606E-03
     0.063     0.143   0.237994E-03
     0.063     0.159   0.669499E-04
     0.063     0.175   0.170227E-04
     0.063     0.190   0.391715E-05
     0.063     0.206   0.816696E-06
     0.063     0.222   0.154416E-06
     0.063     0.238   0.264942E-07
     0.063     0.254   0.412663E-08
     0.063     0.270   0.583518E-09
     0.063     0.286   0.748885E-10
     0.063     0.302   0.871785E-11
     0.063     0.317   0.919605E-12
     0.063     0.333   0.877749E-13
     0.063     0.349   0.756638E-14
     0.063     0.365   0.587613E-15
     0.063     0.381   0.409867E-16
     0.063     0.397   0.255790E-17
     0.063     0.413   0.142155E-18
     0.063     0.429   0.699450E-20
     0.063     0.444   0.302502E-21
     0.063     0.460   0.113962E-22
     0.063     0.476   0.369719E-24
     0.063     0.492   0.101771E-25
     0.063     0.508   0.233045E-27
     0.063     0.524   0.431957E-29
     0.063     0.540   0.622637E-31
     0.063     0.556   0.654815E-33
     0.063     0.571   0.446935E-35
     0.063     0.587   0.148582E-37
     0.063     0.603    0.00000    
     0.063     0.619    0.00000    
     0.063     0.635    0.00000    
     0.063     0.651    0.00000    
     0.063     0.667    0.00000    
     0.063     0.683    0.00000    
     0.063     0.698    0.00000    
     0.063     0.714    0.00000    
     0.063     0.730    0.00000    
     0.063     0.746    0.00000    
     0.063     0.762    0.00000    
     0.063     0.778    0.00000    
     0.063     0.794    0.00000    
     0.063     0.810    0.00000    
     0.063     0.825    0.00000    
     0.063     0.841    0.00000    
     0.063     0.857    0.00000    
     0.063     0.873    0.00000    
     0.063     0.889    0.00000    
     0.063     0.905    0.00000    
     0.063     0.921    0.00000    
     0.063     0.937    0.00000    
     0.063     0.952    0.00000    
     0.063     0.968    0.00000    
     0.063     0.984    0.00000    
     0.063     1.000    0.00000    
     0.079     0.000   0.246757    
     0.079     0.016   0.175641    
     0.079     0.032   0.113822    
     0.079     0.048   0.667322E-01
     0.079     0.063   0.352591E-01
     0.079     0.079   0.167563E-01
     0.079     0.095   0.715828E-02
     0.079     0.111   0.274996E-02
     0.079     0.127   0.950942E-03
     0.079     0.143   0.296382E-03
     0.079     0.159   0.833747E-04
     0.079     0.175   0.211989E-04
     0.079     0.190   0.487815E-05
     0.079     0.206   0.101706E-05
     0.079     0.222   0.192299E-06
     0.079     0.238   0.329940E-07
     0.079     0.254   0.513901E-08
     0.079     0.270   0.726673E-09
     0.079     0.286   0.932609E-10
     0.079     0.302   0.108566E-10
     0.079     0.317   0.114521E-11
     0.079     0.333   0.109309E-12
     0.079     0.349   0.942265E-14
     0.079     0.365   0.731772E-15
     0.079     0.381   0.510420E-16
     0.079     0.397   0.318543E-17
     0.079     0.413   0.177031E-18
     0.079     0.429   0.871047E-20
     0.079     0.444   0.376715E-21
     0.079     0.460   0.141920E-22
     0.079     0.476   0.460422E-24
     0.079     0.492   0.126739E-25
     0.079     0.508   0.290218E-27
     0.079     0.524   0.537929E-29
     0.079     0.540   0.775389E-31
     0.079     0.556   0.815461E-33
     0.079     0.571   0.556582E-35
     0.079     0.587   0.185034E-37
     0.079     0.603    0.00000    
     0.079     0.619    0.00000    
     0.079     0.635    0.00000    
     0.079     0.651    0.00000    
     0.079     0.667    0.00000    
     0.079     0.683    0.00000    
     0.079     0.698    0.00000    
     0.079     0.714    0.00000    
     0.079     0.730    0.00000    
     0.079     0.746    0.00000    
     0.079     0.762    0.00000    
     0.079     0.778    0.00000    
     0.079     0.794    0.00000    
     0.079     0.810    0.00000    
     0.079     0.825    0.00000    
     0.079     0.841    0.00000    
     0.079     0.857    0.00000    
     0.079     0.873    0.00000    
     0.079     0.889    0.00000    
     0.079     0.905    0.00000    
     0.079     0.921    0.00000    
     0.079     0.937    0.00000    
     0.079     0.952    0.00000    
     0.079     0.968    0.00000    
     0.079     0.984    0.00000    
     0.079     1.000    0.00000    
     0.095     0.000   0.294755    
     0.095     0.016   0.209806    
     0.095     0.032   0.135962    
     0.095     0.048   0.797125E-01
     0.095     0.063   0.421175E-01
     0.095     0.079   0.200156E-01
     0.095     0.095   0.855066E-02
     0.095     0.111   0.328487E-02
     0.095     0.127   0.113591E-02
     0.095     0.143   0.354032E-03
     0.095     0.159   0.995923E-04
     0.095     0.175   0.253224E-04
     0.095     0.190   0.582701E-05
     0.095     0.206   0.121489E-05
     0.095     0.222   0.229704E-06
     0.095     0.238   0.394118E-07
     0.095     0.254   0.613862E-08
     0.095     0.270   0.868021E-09
     0.095     0.286   0.111401E-09
     0.095     0.302   0.129684E-10
     0.095     0.317   0.136797E-11
     0.095     0.333   0.130571E-12
     0.095     0.349   0.112555E-13
     0.095     0.365   0.874112E-15
     0.095     0.381   0.609703E-16
     0.095     0.397   0.380504E-17
     0.095     0.413   0.211465E-18
     0.095     0.429   0.104048E-19
     0.095     0.444   0.449992E-21
     0.095     0.460   0.169525E-22
     0.095     0.476   0.549980E-24
     0.095     0.492   0.151391E-25
     0.095     0.508   0.346670E-27
     0.095     0.524   0.642563E-29
     0.095     0.540   0.926213E-31
     0.095     0.556   0.974080E-33
     0.095     0.571   0.664845E-35
     0.095     0.587   0.221025E-37
     0.095     0.603    0.00000    
     0.095     0.619    0.00000    
     0.095     0.635    0.00000    
     0.095     0.651    0.00000    
     0.095     0.667    0.00000    
     0.095     0.683    0.00000    
     0.095     0.698    0.00000    
     0.095     0.714    0.00000    
     0.095     0.730    0.00000    
     0.095     0.746    0.00000    
     0.095     0.762    0.00000    
     0.095     0.778    0.00000    
     0.095     0.794    0.00000    
     0.095     0.810    0.00000    
     0.095     0.825    0.00000    
     0.095     0.841    0.00000    
     0.095     0.857    0.00000    
     0.095     0.873    0.00000    
     0.095     0.889    0.00000    
     0.095     0.905    0.00000    
     0.095     0.921    0.00000    
     0.095     0.937    0.00000    
     0.095     0.952    0.00000    
     0.095     0.968    0.00000    
     0.095     0.984    0.00000    
     0.095     1.000    0.00000    
     0.111     0.000   0.342020    
     0.111     0.016   0.243449    
     0.111     0.032   0.157764    
     0.111     0.048   0.924947E-01
     0.111     0.063   0.488711E-01
     0.111     0.079   0.232252E-01
     0.111     0.095   0.992179E-02
     0.111     0.111   0.381161E-02
     0.111     0.127   0.131806E-02
     0.111     0.143   0.410802E-03
     0.111     0.159   0.115562E-03
     0.111     0.175   0.293830E-04
     0.111     0.190   0.676139E-05
     0.111     0.206   0.140970E-05
     0.111     0.222   0.266538E-06
     0.111     0.238   0.457316E-07
     0.111     0.254   0.712297E-08
     0.111     0.270   0.100721E-08
     0.111     0.286   0.129265E-09
     0.111     0.302   0.150479E-10
     0.111     0.317   0.158733E-11
     0.111     0.333   0.151508E-12
     0.111     0.349   0.130603E-13
     0.111     0.365   0.101428E-14
     0.111     0.381   0.707471E-16
     0.111     0.397   0.441519E-17
     0.111     0.413   0.245375E-18
     0.111     0.429   0.120732E-19
     0.111     0.444   0.522150E-21
     0.111     0.460   0.196709E-22
     0.111     0.476   0.638172E-24
     0.111     0.492   0.175667E-25
     0.111     0.508   0.402259E-27
     0.111     0.524   0.745600E-29
     0.111     0.540   0.107473E-30
     0.111     0.556   0.113028E-32
     0.111     0.571   0.771455E-35
     0.111     0.587   0.256467E-37
     0.111     0.603    0.00000    
     0.111     0.619    0.00000    
     0.111     0.635    0.00000    
     0.111     0.651    0.00000    
     0.111     0.667    0.00000    
     0.111     0.683    0.00000    
     0.111     0.698    0.00000    
     0.111     0.714    0.00000    
     0.111     0.730    0.00000    
     0.111     0.746    0.00000    
     0.111     0.762    0.00000    
     0.111     0.778    0.00000    
     0.111     0.794    0.00000    
     0.111     0.810    0.00000    
     0.111     0.825    0.00000    
     0.111     0.841    0.00000    
     0.111     0.857    0.00000    
     0.111     0.873    0.00000    
     0.111     0.889    0.00000    
     0.111     0.905    0.00000    
     0.111     0.921    0.00000    
     0.111     0.937    0.00000    
     0.111     0.952    0.00000    
     0.111     0.968    0.00000    
     0.111     0.984    0.00000    
     0.111     1.000    0.00000    
     0.127     0.000   0.388435    
     0.127     0.016   0.276487    
     0.127     0.032   0.179173    
     0.127     0.048   0.105047    
     0.127     0.063   0.555033E-01
     0.127     0.079   0.263770E-01
     0.127     0.095   0.112683E-01
     0.127     0.111   0.432887E-02
     0.127     0.127   0.149693E-02
     0.127     0.143   0.466551E-03
     0.127     0.159   0.131245E-03
     0.127     0.175   0.333705E-04
     0.127     0.190   0.767896E-05
     0.127     0.206   0.160101E-05
     0.127     0.222   0.302709E-06
     0.127     0.238   0.519378E-07
     0.127     0.254   0.808961E-08
     0.127     0.270   0.114390E-08
     0.127     0.286   0.146807E-09
     0.127     0.302   0.170900E-10
     0.127     0.317   0.180274E-11
     0.127     0.333   0.172069E-12
     0.127     0.349   0.148327E-13
     0.127     0.365   0.115192E-14
     0.127     0.381   0.803480E-16
     0.127     0.397   0.501436E-17
     0.127     0.413   0.278674E-18
     0.127     0.429   0.137116E-19
     0.127     0.444   0.593009E-21
     0.127     0.460   0.223404E-22
     0.127     0.476   0.724776E-24
     0.127     0.492   0.199507E-25
     0.127     0.508   0.456849E-27
     0.127     0.524   0.846784E-29
     0.127     0.540   0.122058E-30
     0.127     0.556   0.128366E-32
     0.127     0.571   0.876147E-35
     0.127     0.587   0.291272E-37
     0.127     0.603    0.00000    
     0.127     0.619    0.00000    
     0.127     0.635    0.00000    
     0.127     0.651    0.00000    
     0.127     0.667    0.00000    
     0.127     0.683    0.00000    
     0.127     0.698    0.00000    
     0.127     0.714    0.00000    
     0.127     0.730    0.00000    
     0.127     0.746    0.00000    
     0.127     0.762    0.00000    
     0.127     0.778    0.00000    
     0.127     0.794    0.00000    
     0.127     0.810    0.00000    
     0.127     0.825    0.00000    
     0.127     0.841    0.00000    
     0.127     0.857    0.00000    
     0.127     0.873    0.00000    
     0.127     0.889    0.00000    
     0.127     0.905    0.00000    
     0.127     0.921    0.00000    
     0.127     0.937    0.00000    
     0.127     0.952    0.00000    
     0.127     0.968    0.00000    
     0.127     0.984    0.00000    
     0.127     1.000    0.00000    
     0.143     0.000   0.433884    
     0.143     0.016   0.308837    
     0.143     0.032   0.200138    
     0.143     0.048   0.117338    
     0.143     0.063   0.619975E-01
     0.143     0.079   0.294633E-01
     0.143     0.095   0.125867E-01
     0.143     0.111   0.483537E-02
     0.143     0.127   0.167208E-02
     0.143     0.143   0.521140E-03
     0.143     0.159   0.146601E-03
     0.143     0.175   0.372750E-04
     0.143     0.190   0.857744E-05
     0.143     0.206   0.178833E-05
     0.143     0.222   0.338128E-06
     0.143     0.238   0.580148E-07
     0.143     0.254   0.903614E-08
     0.143     0.270   0.127774E-08
     0.143     0.286   0.163985E-09
     0.143     0.302   0.190896E-10
     0.143     0.317   0.201367E-11
     0.143     0.333   0.192202E-12
     0.143     0.349   0.165682E-13
     0.143     0.365   0.128671E-14
     0.143     0.381   0.897492E-16
     0.143     0.397   0.560107E-17
     0.143     0.413   0.311280E-18
     0.143     0.429   0.153160E-19
     0.143     0.444   0.662394E-21
     0.143     0.460   0.249544E-22
     0.143     0.476   0.809579E-24
     0.143     0.492   0.222850E-25
     0.143     0.508   0.510303E-27
     0.143     0.524   0.945862E-29
     0.143     0.540   0.136340E-30
     0.143     0.556   0.143386E-32
     0.143     0.571   0.978661E-35
     0.143     0.587   0.325352E-37
     0.143     0.603    0.00000    
     0.143     0.619    0.00000    
     0.143     0.635    0.00000    
     0.143     0.651    0.00000    
     0.143     0.667    0.00000    
     0.143     0.683    0.00000    
     0.143     0.698    0.00000    
     0.143     0.714    0.00000    
     0.143     0.730    0.00000    
     0.143     0.746    0.00000    
     0.143     0.762    0.00000    
     0.143     0.778    0.00000    
     0.143     0.794    0.00000    
     0.143     0.810    0.00000    
     0.143     0.825    0.00000    
     0.143     0.841    0.00000    
     0.143     0.857    0.00000    
     0.143     0.873    0.00000    
     0.143     0.889    0.00000    
     0.143     0.905    0.00000    
     0.143     0.921    0.00000    
     0.143     0.937    0.00000    
     0.143     0.952    0.00000    
     0.143     0.968    0.00000    
     0.143     0.984    0.00000    
     0.143     1.000    0.00000    
     0.159     0.000   0.478254    
     0.159     0.016   0.340420    
     0.159     0.032   0.220604    
     0.159     0.048   0.129337    
     0.159     0.063   0.683376E-01
     0.159     0.079   0.324763E-01
     0.159     0.095   0.138738E-01
     0.159     0.111   0.532985E-02
     0.159     0.127   0.184307E-02
     0.159     0.143   0.574433E-03
     0.159     0.159   0.161593E-03
     0.159     0.175   0.410868E-04
     0.159     0.190   0.945460E-05
     0.159     0.206   0.197121E-05
     0.159     0.222   0.372705E-06
     0.159     0.238   0.639475E-07
     0.159     0.254   0.996020E-08
     0.159     0.270   0.140840E-08
     0.159     0.286   0.180754E-09
     0.159     0.302   0.210418E-10
     0.159     0.317   0.221960E-11
     0.159     0.333   0.211857E-12
     0.159     0.349   0.182625E-13
     0.159     0.365   0.141829E-14
     0.159     0.381   0.989272E-16
     0.159     0.397   0.617385E-17
     0.159     0.413   0.343113E-18
     0.159     0.429   0.168822E-19
     0.159     0.444   0.730133E-21
     0.159     0.460   0.275063E-22
     0.159     0.476   0.892369E-24
     0.159     0.492   0.245639E-25
     0.159     0.508   0.562488E-27
     0.159     0.524   0.104259E-28
     0.159     0.540   0.150282E-30
     0.159     0.556   0.158049E-32
     0.159     0.571   0.107874E-34
     0.159     0.587   0.358624E-37
     0.159     0.603    0.00000    
     0.159     0.619    0.00000    
     0.159     0.635    0.00000    
     0.159     0.651    0.00000    
     0.159     0.667    0.00000    
     0.159     0.683    0.00000    
     0.159     0.698    0.00000    
     0.159     0.714    0.00000    
     0.159     0.730    0.00000    
     0.159     0.746    0.00000    
     0.159     0.762    0.00000    
     0.159     0.778    0.00000    
     0.159     0.794    0.00000    
     0.159     0.810    0.00000    
     0.159     0.825    0.00000    
     0.159     0.841    0.00000    
     0.159     0.857    0.00000    
     0.159     0.873    0.00000    
     0.159     0.889    0.00000    
     0.159     0.905    0.00000    
     0.159     0.921    0.00000    
     0.159     0.937    0.00000    
     0.159     0.952    0.00000    
     0.159     0.968    0.00000    
     0.159     0.984    0.00000    
     0.159     1.000    0.00000    
     0.175     0.000   0.521435    
     0.175     0.016   0.371156    
     0.175     0.032   0.240522    
     0.175     0.048   0.141015    
     0.175     0.063   0.745077E-01
     0.175     0.079   0.354086E-01
     0.175     0.095   0.151265E-01
     0.175     0.111   0.581108E-02
     0.175     0.127   0.200948E-02
     0.175     0.143   0.626298E-03
     0.175     0.159   0.176183E-03
     0.175     0.175   0.447965E-04
     0.175     0.190   0.103082E-04
     0.175     0.206   0.214919E-05
     0.175     0.222   0.406357E-06
     0.175     0.238   0.697213E-07
     0.175     0.254   0.108595E-07
     0.175     0.270   0.153557E-08
     0.175     0.286   0.197074E-09
     0.175     0.302   0.229416E-10
     0.175     0.317   0.242000E-11
     0.175     0.333   0.230986E-12
     0.175     0.349   0.199115E-13
     0.175     0.365   0.154634E-14
     0.175     0.381   0.107859E-15
     0.175     0.397   0.673128E-17
     0.175     0.413   0.374092E-18
     0.175     0.429   0.184065E-19
     0.175     0.444   0.796056E-21
     0.175     0.460   0.299898E-22
     0.175     0.476   0.972940E-24
     0.175     0.492   0.267818E-25
     0.175     0.508   0.613274E-27
     0.175     0.524   0.113672E-28
     0.175     0.540   0.163851E-30
     0.175     0.556   0.172319E-32
     0.175     0.571   0.117614E-34
     0.175     0.587   0.391004E-37
     0.175     0.603    0.00000    
     0.175     0.619    0.00000    
     0.175     0.635    0.00000    
     0.175     0.651    0.00000    
     0.175     0.667    0.00000    
     0.175     0.683    0.00000    
     0.175     0.698    0.00000    
     0.175     0.714    0.00000    
     0.175     0.730    0.00000    
     0.175     0.746    0.00000    
     0.175     0.762    0.00000    
     0.175     0.778    0.00000    
     0.175     0.794    0.00000    
     0.175     0.810    0.00000    
     0.175     0.825    0.00000    
     0.175     0.841    0.00000    
     0.175     0.857    0.00000    
     0.175     0.873    0.00000    
     0.175     0.889    0.00000    
     0.175     0.905    0.00000    
     0.175     0.921    0.00000    
     0.175     0.937    0.00000    
     0.175     0.952    0.00000    
     0.175     0.968    0.00000    
     0.175     0.984    0.00000    
     0.175     1.000    0.00000    
     0.190     0.000   0.563320    
     0.190     0.016   0.400970    
     0.190     0.032   0.259843    
     0.190     0.048   0.152342    
     0.190     0.063   0.804926E-01
     0.190     0.079   0.382528E-01
     0.190     0.095   0.163416E-01
     0.190     0.111   0.627786E-02
     0.190     0.127   0.217090E-02
     0.190     0.143   0.676607E-03
     0.190     0.159   0.190335E-03
     0.190     0.175   0.483949E-04
     0.190     0.190   0.111363E-04
     0.190     0.206   0.232183E-05
     0.190     0.222   0.438998E-06
     0.190     0.238   0.753217E-07
     0.190     0.254   0.117318E-07
     0.190     0.270   0.165891E-08
     0.190     0.286   0.212904E-09
     0.190     0.302   0.247844E-10
     0.190     0.317   0.261439E-11
     0.190     0.333   0.249540E-12
     0.190     0.349   0.215109E-13
     0.190     0.365   0.167056E-14
     0.190     0.381   0.116523E-15
     0.190     0.397   0.727198E-17
     0.190     0.413   0.404141E-18
     0.190     0.429   0.198850E-19
     0.190     0.444   0.860000E-21
     0.190     0.460   0.323988E-22
     0.190     0.476   0.105109E-23
     0.190     0.492   0.289330E-25
     0.190     0.508   0.662536E-27
     0.190     0.524   0.122803E-28
     0.190     0.540   0.177013E-30
     0.190     0.556   0.186161E-32
     0.190     0.571   0.127062E-34
     0.190     0.587   0.422412E-37
     0.190     0.603    0.00000    
     0.190     0.619    0.00000    
     0.190     0.635    0.00000    
     0.190     0.651    0.00000    
     0.190     0.667    0.00000    
     0.190     0.683    0.00000    
     0.190     0.698    0.00000    
     0.190     0.714    0.00000    
     0.190     0.730    0.00000    
     0.190     0.746    0.00000    
     0.190     0.762    0.00000    
     0.190     0.778    0.00000    
     0.190     0.794    0.00000    
     0.190     0.810    0.00000    
     0.190     0.825    0.00000    
     0.190     0.841    0.00000    
     0.190     0.857    0.00000    
     0.190     0.873    0.00000    
     0.190     0.889    0.00000    
     0.190     0.905    0.00000    
     0.190     0.921    0.00000    
     0.190     0.937    0.00000    
     0.190     0.952    0.00000    
     0.190     0.968    0.00000    
     0.190     0.984    0.00000    