Title="Temperature Data"
Variables="X","Y","T"
 
Zone I=   128, J=   128, F=POINT
     0.000     0.000    0.00000    
     0.000     0.008    0.00000    
     0.000     0.016    0.00000    
     0.000     0.024    0.00000    
     0.000     0.031    0.00000    
     0.000     0.039    0.00000    
     0.000     0.047    0.00000    
     0.000     0.055    0.00000    
     0.000     0.063    0.00000    
     0.000     0.071    0.00000    
     0.000     0.079    0.00000    
     0.000     0.087    0.00000    
     0.000     0.094    0.00000    
     0.000     0.102    0.00000    
     0.000     0.110    0.00000    
     0.000     0.118    0.00000    
     0.000     0.126    0.00000    
     0.000     0.134    0.00000    
     0.000     0.142    0.00000    
     0.000     0.150    0.00000    
     0.000     0.157    0.00000    
     0.000     0.165    0.00000    
     0.000     0.173    0.00000    
     0.000     0.181    0.00000    
     0.000     0.189    0.00000    
     0.000     0.197    0.00000    
     0.000     0.205    0.00000    
     0.000     0.213    0.00000    
     0.000     0.220    0.00000    
     0.000     0.228    0.00000    
     0.000     0.236    0.00000    
     0.000     0.244    0.00000    
     0.000     0.252    0.00000    
     0.000     0.260    0.00000    
     0.000     0.268    0.00000    
     0.000     0.276    0.00000    
     0.000     0.283    0.00000    
     0.000     0.291    0.00000    
     0.000     0.299    0.00000    
     0.000     0.307    0.00000    
     0.000     0.315    0.00000    
     0.000     0.323    0.00000    
     0.000     0.331    0.00000    
     0.000     0.339    0.00000    
     0.000     0.346    0.00000    
     0.000     0.354    0.00000    
     0.000     0.362    0.00000    
     0.000     0.370    0.00000    
     0.000     0.378    0.00000    
     0.000     0.386    0.00000    
     0.000     0.394    0.00000    
     0.000     0.402    0.00000    
     0.000     0.409    0.00000    
     0.000     0.417    0.00000    
     0.000     0.425    0.00000    
     0.000     0.433    0.00000    
     0.000     0.441    0.00000    
     0.000     0.449    0.00000    
     0.000     0.457    0.00000    
     0.000     0.465    0.00000    
     0.000     0.472    0.00000    
     0.000     0.480    0.00000    
     0.000     0.488    0.00000    
     0.000     0.496    0.00000    
     0.000     0.504    0.00000    
     0.000     0.512    0.00000    
     0.000     0.520    0.00000    
     0.000     0.528    0.00000    
     0.000     0.535    0.00000    
     0.000     0.543    0.00000    
     0.000     0.551    0.00000    
     0.000     0.559    0.00000    
     0.000     0.567    0.00000    
     0.000     0.575    0.00000    
     0.000     0.583    0.00000    
     0.000     0.591    0.00000    
     0.000     0.598    0.00000    
     0.000     0.606    0.00000    
     0.000     0.614    0.00000    
     0.000     0.622    0.00000    
     0.000     0.630    0.00000    
     0.000     0.638    0.00000    
     0.000     0.646    0.00000    
     0.000     0.654    0.00000    
     0.000     0.661    0.00000    
     0.000     0.669    0.00000    
     0.000     0.677    0.00000    
     0.000     0.685    0.00000    
     0.000     0.693    0.00000    
     0.000     0.701    0.00000    
     0.000     0.709    0.00000    
     0.000     0.717    0.00000    
     0.000     0.724    0.00000    
     0.000     0.732    0.00000    
     0.000     0.740    0.00000    
     0.000     0.748    0.00000    
     0.000     0.756    0.00000    
     0.000     0.764    0.00000    
     0.000     0.772    0.00000    
     0.000     0.780    0.00000    
     0.000     0.787    0.00000    
     0.000     0.795    0.00000    
     0.000     0.803    0.00000    
     0.000     0.811    0.00000    
     0.000     0.819    0.00000    
     0.000     0.827    0.00000    
     0.000     0.835    0.00000    
     0.000     0.843    0.00000    
     0.000     0.850    0.00000    
     0.000     0.858    0.00000    
     0.000     0.866    0.00000    
     0.000     0.874    0.00000    
     0.000     0.882    0.00000    
     0.000     0.890    0.00000    
     0.000     0.898    0.00000    
     0.000     0.906    0.00000    
     0.000     0.913    0.00000    
     0.000     0.921    0.00000    
     0.000     0.929    0.00000    
     0.000     0.937    0.00000    
     0.000     0.945    0.00000    
     0.000     0.953    0.00000    
     0.000     0.961    0.00000    
     0.000     0.969    0.00000    
     0.000     0.976    0.00000    
     0.000     0.984    0.00000    
     0.000     0.992    0.00000    
     0.000     1.000    0.00000    
     0.008     0.000   0.247344E-01
     0.008     0.008   0.240539E-01
     0.008     0.016   0.233883E-01
     0.008     0.024   0.227371E-01
     0.008     0.031   0.221003E-01
     0.008     0.039   0.214775E-01
     0.008     0.047   0.208685E-01
     0.008     0.055   0.202728E-01
     0.008     0.063   0.196906E-01
     0.008     0.071   0.191212E-01
     0.008     0.079   0.185647E-01
     0.008     0.087   0.180206E-01
     0.008     0.094   0.174891E-01
     0.008     0.102   0.169694E-01
     0.008     0.110   0.164619E-01
     0.008     0.118   0.159659E-01
     0.008     0.126   0.154816E-01
     0.008     0.134   0.150083E-01
     0.008     0.142   0.145465E-01
     0.008     0.150   0.140952E-01
     0.008     0.157   0.136551E-01
     0.008     0.165   0.132251E-01
     0.008     0.173   0.128059E-01
     0.008     0.181   0.123966E-01
     0.008     0.189   0.119977E-01
     0.008     0.197   0.116082E-01
     0.008     0.205   0.112289E-01
     0.008     0.213   0.108587E-01
     0.008     0.220   0.104983E-01
     0.008     0.228   0.101468E-01
     0.008     0.236   0.980472E-02
     0.008     0.244   0.947112E-02
     0.008     0.252   0.914678E-02
     0.008     0.260   0.883056E-02
     0.008     0.268   0.852331E-02
     0.008     0.276   0.822387E-02
     0.008     0.283   0.793312E-02
     0.008     0.291   0.764988E-02
     0.008     0.299   0.737504E-02
     0.008     0.307   0.710741E-02
     0.008     0.315   0.684791E-02
     0.008     0.323   0.659533E-02
     0.008     0.331   0.635060E-02
     0.008     0.339   0.611250E-02
     0.008     0.346   0.588198E-02
     0.008     0.354   0.565782E-02
     0.008     0.362   0.544096E-02
     0.008     0.370   0.523018E-02
     0.008     0.378   0.502643E-02
     0.008     0.386   0.482850E-02
     0.008     0.394   0.463732E-02
     0.008     0.402   0.445170E-02
     0.008     0.409   0.427256E-02
     0.008     0.417   0.409872E-02
     0.008     0.425   0.393110E-02
     0.008     0.433   0.376853E-02
     0.008     0.441   0.361190E-02
     0.008     0.449   0.346008E-02
     0.008     0.457   0.331394E-02
     0.008     0.465   0.317237E-02
     0.008     0.472   0.303622E-02
     0.008     0.480   0.290439E-02
     0.008     0.488   0.277773E-02
     0.008     0.496   0.265517E-02
     0.008     0.504   0.253752E-02
     0.008     0.512   0.242375E-02
     0.008     0.520   0.231464E-02
     0.008     0.528   0.220918E-02
     0.008     0.535   0.210815E-02
     0.008     0.543   0.201056E-02
     0.008     0.551   0.191715E-02
     0.008     0.559   0.182698E-02
     0.008     0.567   0.174075E-02
     0.008     0.575   0.165757E-02
     0.008     0.583   0.157810E-02
     0.008     0.591   0.150149E-02
     0.008     0.598   0.142837E-02
     0.008     0.606   0.135792E-02
     0.008     0.614   0.129074E-02
     0.008     0.622   0.122607E-02
     0.008     0.630   0.116445E-02
     0.008     0.638   0.110516E-02
     0.008     0.646   0.104874E-02
     0.008     0.654   0.994479E-03
     0.008     0.661   0.942887E-03
     0.008     0.669   0.893303E-03
     0.008     0.677   0.846200E-03
     0.008     0.685   0.800956E-03
     0.008     0.693   0.758014E-03
     0.008     0.701   0.716790E-03
     0.008     0.709   0.677696E-03
     0.008     0.717   0.640184E-03
     0.008     0.724   0.604637E-03
     0.008     0.732   0.570545E-03
     0.008     0.740   0.538261E-03
     0.008     0.748   0.507310E-03
     0.008     0.756   0.478017E-03
     0.008     0.764   0.449942E-03
     0.008     0.772   0.423381E-03
     0.008     0.780   0.397930E-03
     0.008     0.787   0.373858E-03
     0.008     0.795   0.350792E-03
     0.008     0.803   0.328976E-03
     0.008     0.811   0.308067E-03
     0.008     0.819   0.288286E-03
     0.008     0.827   0.269320E-03
     0.008     0.835   0.251365E-03
     0.008     0.843   0.234138E-03
     0.008     0.850   0.217810E-03
     0.008     0.858   0.202126E-03
     0.008     0.866   0.187237E-03
     0.008     0.874   0.172912E-03
     0.008     0.882   0.159281E-03
     0.008     0.890   0.146139E-03
     0.008     0.898   0.133594E-03
     0.008     0.906   0.121467E-03
     0.008     0.913   0.109844E-03
     0.008     0.921   0.985687E-04
     0.008     0.929   0.877088E-04
     0.008     0.937   0.771304E-04
     0.008     0.945   0.668806E-04
     0.008     0.953   0.568475E-04
     0.008     0.961   0.470590E-04
     0.008     0.969   0.374241E-04
     0.008     0.976   0.279513E-04
     0.008     0.984   0.185702E-04
     0.008     0.992   0.926985E-05
     0.008     1.000    0.00000    
     0.016     0.000   0.494537E-01
     0.016     0.008   0.480931E-01
     0.016     0.016   0.467622E-01
     0.016     0.024   0.454604E-01
     0.016     0.031   0.441871E-01
     0.016     0.039   0.429419E-01
     0.016     0.047   0.417240E-01
     0.016     0.055   0.405334E-01
     0.016     0.063   0.393689E-01
     0.016     0.071   0.382308E-01
     0.016     0.079   0.371179E-01
     0.016     0.087   0.360305E-01
     0.016     0.094   0.349673E-01
     0.016     0.102   0.339287E-01
     0.016     0.110   0.329135E-01
     0.016     0.118   0.319222E-01
     0.016     0.126   0.309534E-01
     0.016     0.134   0.300078E-01
     0.016     0.142   0.290837E-01
     0.016     0.150   0.281822E-01
     0.016     0.157   0.273014E-01
     0.016     0.165   0.264425E-01
     0.016     0.173   0.256036E-01
     0.016     0.181   0.247860E-01
     0.016     0.189   0.239876E-01
     0.016     0.197   0.232097E-01
     0.016     0.205   0.224505E-01
     0.016     0.213   0.217112E-01
     0.016     0.220   0.209898E-01
     0.016     0.228   0.202878E-01
     0.016     0.236   0.196030E-01
     0.016     0.244   0.189369E-01
     0.016     0.252   0.182875E-01
     0.016     0.260   0.176562E-01
     0.016     0.268   0.170409E-01
     0.016     0.276   0.164432E-01
     0.016     0.283   0.158609E-01
     0.016     0.291   0.152956E-01
     0.016     0.299   0.147450E-01
     0.016     0.307   0.142110E-01
     0.016     0.315   0.136911E-01
     0.016     0.323   0.131872E-01
     0.016     0.331   0.126968E-01
     0.016     0.339   0.122218E-01
     0.016     0.346   0.117598E-01
     0.016     0.354   0.113127E-01
     0.016     0.362   0.108780E-01
     0.016     0.370   0.104577E-01
     0.016     0.378   0.100492E-01
     0.016     0.386   0.965458E-02
     0.016     0.394   0.927127E-02
     0.016     0.402   0.890121E-02
     0.016     0.409   0.854198E-02
     0.016     0.417   0.819546E-02
     0.016     0.425   0.785928E-02
     0.016     0.433   0.753526E-02
     0.016     0.441   0.722109E-02
     0.016     0.449   0.691855E-02
     0.016     0.457   0.662536E-02
     0.016     0.465   0.634328E-02
     0.016     0.472   0.607009E-02
     0.016     0.480   0.580748E-02
     0.016     0.488   0.555329E-02
     0.016     0.496   0.530918E-02
     0.016     0.504   0.507303E-02
     0.016     0.512   0.484646E-02
     0.016     0.520   0.462742E-02
     0.016     0.528   0.441745E-02
     0.016     0.535   0.421458E-02
     0.016     0.543   0.402030E-02
     0.016     0.551   0.383271E-02
     0.016     0.559   0.365323E-02
     0.016     0.567   0.348004E-02
     0.016     0.575   0.331450E-02
     0.016     0.583   0.315486E-02
     0.016     0.591   0.300242E-02
     0.016     0.598   0.285551E-02
     0.016     0.606   0.271535E-02
     0.016     0.614   0.258036E-02
     0.016     0.622   0.245171E-02
     0.016     0.630   0.232787E-02
     0.016     0.638   0.220996E-02
     0.016     0.646   0.209654E-02
     0.016     0.654   0.198864E-02
     0.016     0.661   0.188491E-02
     0.016     0.669   0.178633E-02
     0.016     0.677   0.169162E-02
     0.016     0.685   0.160168E-02
     0.016     0.693   0.151532E-02
     0.016     0.701   0.143338E-02
     0.016     0.709   0.135475E-02
     0.016     0.717   0.128020E-02
     0.016     0.724   0.120869E-02
     0.016     0.732   0.114095E-02
     0.016     0.740   0.107599E-02
     0.016     0.748   0.101450E-02
     0.016     0.756   0.955558E-03
     0.016     0.764   0.899784E-03
     0.016     0.772   0.846336E-03
     0.016     0.780   0.795778E-03
     0.016     0.787   0.747334E-03
     0.016     0.795   0.701516E-03
     0.016     0.803   0.657610E-03
     0.016     0.811   0.616079E-03
     0.016     0.819   0.576270E-03
     0.016     0.827   0.538596E-03
     0.016     0.835   0.502463E-03
     0.016     0.843   0.468239E-03
     0.016     0.850   0.435385E-03
     0.016     0.858   0.404223E-03
     0.016     0.866   0.374269E-03
     0.016     0.874   0.345801E-03
     0.016     0.882   0.318387E-03
     0.016     0.890   0.292260E-03
     0.016     0.898   0.267040E-03
     0.016     0.906   0.242920E-03
     0.016     0.913   0.219565E-03
     0.016     0.921   0.197127E-03
     0.016     0.929   0.175319E-03
     0.016     0.937   0.154253E-03
     0.016     0.945   0.133685E-03
     0.016     0.953   0.113690E-03
     0.016     0.961   0.940645E-04
     0.016     0.969   0.748450E-04
     0.016     0.976   0.558707E-04
     0.016     0.984   0.371389E-04
     0.016     0.992   0.185291E-04
     0.016     1.000    0.00000    
     0.024     0.000   0.741428E-01
     0.024     0.008   0.721029E-01
     0.024     0.016   0.701076E-01
     0.024     0.024   0.681558E-01
     0.024     0.031   0.662469E-01
     0.024     0.039   0.643799E-01
     0.024     0.047   0.625543E-01
     0.024     0.055   0.607688E-01
     0.024     0.063   0.590235E-01
     0.024     0.071   0.573167E-01
     0.024     0.079   0.556487E-01
     0.024     0.087   0.540178E-01
     0.024     0.094   0.524245E-01
     0.024     0.102   0.508668E-01
     0.024     0.110   0.493455E-01
     0.024     0.118   0.478585E-01
     0.024     0.126   0.464069E-01
     0.024     0.134   0.449882E-01
     0.024     0.142   0.436038E-01
     0.024     0.150   0.422512E-01
     0.024     0.157   0.409318E-01
     0.024     0.165   0.396430E-01
     0.024     0.173   0.383864E-01
     0.024     0.181   0.371594E-01
     0.024     0.189   0.359636E-01
     0.024     0.197   0.347962E-01
     0.024     0.205   0.336592E-01
     0.024     0.213   0.325495E-01
     0.024     0.220   0.314693E-01
     0.024     0.228   0.304154E-01
     0.024     0.236   0.293902E-01
     0.024     0.244   0.283902E-01
     0.024     0.252   0.274180E-01
     0.024     0.260   0.264701E-01
     0.024     0.268   0.255491E-01
     0.024     0.276   0.246515E-01
     0.024     0.283   0.237800E-01
     0.024     0.291   0.229309E-01
     0.024     0.299   0.221071E-01
     0.024     0.307   0.213048E-01
     0.024     0.315   0.205270E-01
     0.024     0.323   0.197698E-01
     0.024     0.331   0.190363E-01
     0.024     0.339   0.183225E-01
     0.024     0.346   0.176316E-01
     0.024     0.354   0.169596E-01
     0.024     0.362   0.163096E-01
     0.024     0.370   0.156777E-01
     0.024     0.378   0.150670E-01
     0.024     0.386   0.144737E-01
     0.024     0.394   0.139006E-01
     0.024     0.402   0.133442E-01
     0.024     0.409   0.128072E-01
     0.024     0.417   0.122861E-01
     0.024     0.425   0.117837E-01
     0.024     0.433   0.112964E-01
     0.024     0.441   0.108269E-01
     0.024     0.449   0.103718E-01
     0.024     0.457   0.993372E-02
     0.024     0.465   0.950934E-02
     0.024     0.472   0.910122E-02
     0.024     0.480   0.870606E-02
     0.024     0.488   0.832640E-02
     0.024     0.496   0.795901E-02
     0.024     0.504   0.760636E-02
     0.024     0.512   0.726531E-02
     0.024     0.520   0.693825E-02
     0.024     0.528   0.662214E-02
     0.024     0.535   0.631928E-02
     0.024     0.543   0.602675E-02
     0.024     0.551   0.574674E-02
     0.024     0.559   0.547646E-02
     0.024     0.567   0.521799E-02
     0.024     0.575   0.496865E-02
     0.024     0.583   0.473044E-02
     0.024     0.591   0.450079E-02
     0.024     0.598   0.428161E-02
     0.024     0.606   0.407043E-02
     0.024     0.614   0.386907E-02
     0.024     0.622   0.367520E-02
     0.024     0.630   0.349051E-02
     0.024     0.638   0.331279E-02
     0.024     0.646   0.314365E-02
     0.024     0.654   0.298100E-02
     0.024     0.661   0.282635E-02
     0.024     0.669   0.267772E-02
     0.024     0.677   0.253653E-02
     0.024     0.685   0.240091E-02
     0.024     0.693   0.227219E-02
     0.024     0.701   0.214862E-02
     0.024     0.709   0.203143E-02
     0.024     0.717   0.191899E-02
     0.024     0.724   0.181243E-02
     0.024     0.732   0.171024E-02
     0.024     0.740   0.161347E-02
     0.024     0.748   0.152069E-02
     0.024     0.756   0.143288E-02
     0.024     0.764   0.134872E-02
     0.024     0.772   0.126911E-02
     0.024     0.780   0.119282E-02
     0.024     0.787   0.112066E-02
     0.024     0.795   0.105152E-02
     0.024     0.803   0.986122E-03
     0.024     0.811   0.923448E-03
     0.024     0.819   0.864153E-03
     0.024     0.827   0.807302E-03
     0.024     0.835   0.753480E-03
     0.024     0.843   0.701840E-03
     0.024     0.850   0.652896E-03
     0.024     0.858   0.605884E-03
     0.024     0.866   0.561251E-03
     0.024     0.874   0.518313E-03
     0.024     0.882   0.477452E-03
     0.024     0.890   0.438059E-03
     0.024     0.898   0.400456E-03
     0.024     0.906   0.364103E-03
     0.024     0.913   0.329262E-03
     0.024     0.921   0.295465E-03
     0.024     0.929   0.262912E-03
     0.024     0.937   0.231202E-03
     0.024     0.945   0.200478E-03
     0.024     0.953   0.170404E-03
     0.024     0.961   0.141062E-03
     0.024     0.969   0.112181E-03
     0.024     0.976   0.837855E-04
     0.024     0.984   0.556652E-04
     0.024     0.992   0.277869E-04
     0.024     1.000    0.00000    
     0.031     0.000   0.987864E-01
     0.031     0.008   0.960686E-01
     0.031     0.016   0.934099E-01
     0.031     0.024   0.908096E-01
     0.031     0.031   0.882660E-01
     0.031     0.039   0.857787E-01
     0.031     0.047   0.833459E-01
     0.031     0.055   0.809675E-01
     0.031     0.063   0.786415E-01
     0.031     0.071   0.763681E-01
     0.031     0.079   0.741450E-01
     0.031     0.087   0.719728E-01
     0.031     0.094   0.698489E-01
     0.031     0.102   0.677745E-01
     0.031     0.110   0.657465E-01
     0.031     0.118   0.637664E-01
     0.031     0.126   0.618310E-01
     0.031     0.134   0.599421E-01
     0.031     0.142   0.580962E-01
     0.031     0.150   0.562954E-01
     0.031     0.157   0.545360E-01
     0.031     0.165   0.528203E-01
     0.031     0.173   0.511446E-01
     0.031     0.181   0.495113E-01
     0.031     0.189   0.479164E-01
     0.031     0.197   0.463627E-01
     0.031     0.205   0.448460E-01
     0.031     0.213   0.433693E-01
     0.031     0.220   0.419282E-01
     0.031     0.228   0.405259E-01
     0.031     0.236   0.391580E-01
     0.031     0.244   0.378275E-01
     0.031     0.252   0.365302E-01
     0.031     0.260   0.352692E-01
     0.031     0.268   0.340401E-01
     0.031     0.276   0.328462E-01
     0.031     0.283   0.316829E-01
     0.031     0.291   0.305538E-01
     0.031     0.299   0.294540E-01
     0.031     0.307   0.283872E-01
     0.031     0.315   0.273487E-01
     0.031     0.323   0.263420E-01
     0.031     0.331   0.253625E-01
     0.031     0.339   0.244137E-01
     0.031     0.346   0.234909E-01
     0.031     0.354   0.225978E-01
     0.031     0.362   0.217295E-01
     0.031     0.370   0.208898E-01
     0.031     0.378   0.200739E-01
     0.031     0.386   0.192855E-01
     0.031     0.394   0.185199E-01
     0.031     0.402   0.177806E-01
     0.031     0.409   0.170631E-01
     0.031     0.417   0.163709E-01
     0.031     0.425   0.156993E-01
     0.031     0.433   0.150521E-01
     0.031     0.441   0.144245E-01
     0.031     0.449   0.138202E-01
     0.031     0.457   0.132345E-01
     0.031     0.465   0.126710E-01
     0.031     0.472   0.121253E-01
     0.031     0.480   0.116008E-01
     0.031     0.488   0.110930E-01
     0.031     0.496   0.106054E-01
     0.031     0.504   0.101337E-01
     0.031     0.512   0.968107E-02
     0.031     0.520   0.924351E-02
     0.031     0.528   0.882409E-02
     0.031     0.535   0.841884E-02
     0.031     0.543   0.803076E-02
     0.031     0.551   0.765604E-02
     0.031     0.559   0.729753E-02
     0.031     0.567   0.695157E-02
     0.031     0.575   0.662090E-02
     0.031     0.583   0.630201E-02
     0.031     0.591   0.599750E-02
     0.031     0.598   0.570403E-02
     0.031     0.606   0.542406E-02
     0.031     0.614   0.515441E-02
     0.031     0.622   0.489742E-02
     0.031     0.630   0.465005E-02
     0.031     0.638   0.441452E-02
     0.031     0.646   0.418794E-02
     0.031     0.654   0.397242E-02
     0.031     0.661   0.376522E-02
     0.031     0.669   0.356829E-02
     0.031     0.677   0.337909E-02
     0.031     0.685   0.319944E-02
     0.031     0.693   0.302693E-02
     0.031     0.701   0.286326E-02
     0.031     0.709   0.270618E-02
     0.031     0.717   0.255727E-02
     0.031     0.724   0.241442E-02
     0.031     0.732   0.227910E-02
     0.031     0.740   0.214935E-02
     0.031     0.748   0.202652E-02
     0.031     0.756   0.190878E-02
     0.031     0.764   0.179737E-02
     0.031     0.772   0.169060E-02
     0.031     0.780   0.158961E-02
     0.031     0.787   0.149284E-02
     0.031     0.795   0.140131E-02
     0.031     0.803   0.131361E-02
     0.031     0.811   0.123065E-02
     0.031     0.819   0.115113E-02
     0.031     0.827   0.107587E-02
     0.031     0.835   0.100370E-02
     0.031     0.843   0.935332E-03
     0.031     0.850   0.869705E-03
     0.031     0.858   0.807458E-03
     0.031     0.866   0.747623E-03
     0.031     0.874   0.690756E-03
     0.031     0.882   0.635994E-03
     0.031     0.890   0.583806E-03
     0.031     0.898   0.533427E-03
     0.031     0.906   0.485246E-03
     0.031     0.913   0.438592E-03
     0.031     0.921   0.393772E-03
     0.031     0.929   0.350209E-03
     0.031     0.937   0.308129E-03
     0.031     0.945   0.267044E-03
     0.031     0.953   0.227102E-03
     0.031     0.961   0.187899E-03
     0.031     0.969   0.149507E-03
     0.031     0.976   0.111605E-03
     0.031     0.984   0.741868E-04
     0.031     0.992   0.370129E-04
     0.031     1.000    0.00000    
     0.039     0.000   0.123370    
     0.039     0.008   0.119975    
     0.039     0.016   0.116655    
     0.039     0.024   0.113408    
     0.039     0.031   0.110231    
     0.039     0.039   0.107125    
     0.039     0.047   0.104087    
     0.039     0.055   0.101116    
     0.039     0.063   0.982120E-01
     0.039     0.071   0.953720E-01
     0.039     0.079   0.925966E-01
     0.039     0.087   0.898828E-01
     0.039     0.094   0.872316E-01
     0.039     0.102   0.846396E-01
     0.039     0.110   0.821083E-01
     0.039     0.118   0.796341E-01
     0.039     0.126   0.772186E-01
     0.039     0.134   0.748580E-01
     0.039     0.142   0.725544E-01
     0.039     0.150   0.703037E-01
     0.039     0.157   0.681083E-01
     0.039     0.165   0.659638E-01
     0.039     0.173   0.638730E-01
     0.039     0.181   0.618312E-01
     0.039     0.189   0.598416E-01
     0.039     0.197   0.578991E-01
     0.039     0.205   0.560072E-01
     0.039     0.213   0.541607E-01
     0.039     0.220   0.523633E-01
     0.039     0.228   0.506097E-01
     0.039     0.236   0.489037E-01
     0.039     0.244   0.472398E-01
     0.039     0.252   0.456221E-01
     0.039     0.260   0.440448E-01
     0.039     0.268   0.425123E-01
     0.039     0.276   0.410188E-01
     0.039     0.283   0.395686E-01
     0.039     0.291   0.381558E-01
     0.039     0.299   0.367850E-01
     0.039     0.307   0.354501E-01
     0.039     0.315   0.341558E-01
     0.039     0.323   0.328960E-01
     0.039     0.331   0.316753E-01
     0.039     0.339   0.304878E-01
     0.039     0.346   0.293380E-01
     0.039     0.354   0.282199E-01
     0.039     0.362   0.271383E-01
     0.039     0.370   0.260869E-01
     0.039     0.378   0.250707E-01
     0.039     0.386   0.240834E-01
     0.039     0.394   0.231299E-01
     0.039     0.402   0.222040E-01
     0.039     0.409   0.213106E-01
     0.039     0.417   0.204435E-01
     0.039     0.425   0.196074E-01
     0.039     0.433   0.187965E-01
     0.039     0.441   0.180153E-01
     0.039     0.449   0.172581E-01
     0.039     0.457   0.165292E-01
     0.039     0.465   0.158230E-01
     0.039     0.472   0.151439E-01
     0.039     0.480   0.144864E-01
     0.039     0.488   0.138547E-01
     0.039     0.496   0.132434E-01
     0.039     0.504   0.126566E-01
     0.039     0.512   0.120891E-01
     0.039     0.520   0.115449E-01
     0.039     0.528   0.110189E-01
     0.039     0.535   0.105150E-01
     0.039     0.543   0.100282E-01
     0.039     0.551   0.956228E-02
     0.039     0.559   0.911253E-02
     0.039     0.567   0.868246E-02
     0.039     0.575   0.826757E-02
     0.039     0.583   0.787120E-02
     0.039     0.591   0.748908E-02
     0.039     0.598   0.712437E-02
     0.039     0.606   0.677299E-02
     0.039     0.614   0.643794E-02
     0.039     0.622   0.611533E-02
     0.039     0.630   0.580802E-02
     0.039     0.638   0.551230E-02
     0.039     0.646   0.523087E-02
     0.039     0.654   0.496023E-02
     0.039     0.661   0.470290E-02
     0.039     0.669   0.445559E-02
     0.039     0.677   0.422065E-02
     0.039     0.685   0.399499E-02
     0.039     0.693   0.378080E-02
     0.039     0.701   0.357519E-02
     0.039     0.709   0.338019E-02
     0.039     0.717   0.319309E-02
     0.039     0.724   0.301579E-02
     0.039     0.732   0.284575E-02
     0.039     0.740   0.268472E-02
     0.039     0.748   0.253035E-02
     0.039     0.756   0.238424E-02
     0.039     0.764   0.224421E-02
     0.039     0.772   0.211173E-02
     0.039     0.780   0.198479E-02
     0.039     0.787   0.186472E-02
     0.039     0.795   0.174967E-02
     0.039     0.803   0.164085E-02
     0.039     0.811   0.153657E-02
     0.039     0.819   0.143790E-02
     0.039     0.827   0.134331E-02
     0.039     0.835   0.125375E-02
     0.039     0.843   0.116782E-02
     0.039     0.850   0.108638E-02
     0.039     0.858   0.100816E-02
     0.039     0.866   0.933893E-03
     0.039     0.874   0.862445E-03
     0.039     0.882   0.794456E-03
     0.039     0.890   0.728908E-03
     0.039     0.898   0.666337E-03
     0.039     0.906   0.605848E-03
     0.039     0.913   0.547875E-03
     0.039     0.921   0.491638E-03
     0.039     0.929   0.437471E-03
     0.039     0.937   0.384709E-03
     0.039     0.945   0.333585E-03
     0.039     0.953   0.283543E-03
     0.039     0.961   0.234719E-03
     0.039     0.969   0.186663E-03
     0.039     0.976   0.139415E-03
     0.039     0.984   0.926239E-04
     0.039     0.992   0.462359E-04
     0.039     1.000    0.00000    
     0.047     0.000   0.147877    
     0.047     0.008   0.143809    
     0.047     0.016   0.139829    
     0.047     0.024   0.135937    
     0.047     0.031   0.132129    
     0.047     0.039   0.128406    
     0.047     0.047   0.124764    
     0.047     0.055   0.121204    
     0.047     0.063   0.117722    
     0.047     0.071   0.114318    
     0.047     0.079   0.110991    
     0.047     0.087   0.107739    
     0.047     0.094   0.104560    
     0.047     0.102   0.101454    
     0.047     0.110   0.984186E-01
     0.047     0.118   0.954545E-01
     0.047     0.126   0.925574E-01
     0.047     0.134   0.897297E-01
     0.047     0.142   0.869666E-01
     0.047     0.150   0.842708E-01
     0.047     0.157   0.816371E-01
     0.047     0.165   0.790689E-01
     0.047     0.173   0.765604E-01
     0.047     0.181   0.741154E-01
     0.047     0.189   0.717280E-01
     0.047     0.197   0.694022E-01
     0.047     0.205   0.671318E-01
     0.047     0.213   0.649212E-01
     0.047     0.220   0.627641E-01
     0.047     0.228   0.606649E-01
     0.047     0.236   0.586171E-01
     0.047     0.244   0.566256E-01
     0.047     0.252   0.546835E-01
     0.047     0.260   0.527960E-01
     0.047     0.268   0.509560E-01
     0.047     0.276   0.491688E-01
     0.047     0.283   0.474275E-01
     0.047     0.291   0.457372E-01
     0.047     0.299   0.440909E-01
     0.047     0.307   0.424940E-01
     0.047     0.315   0.409393E-01
     0.047     0.323   0.394325E-01
     0.047     0.331   0.379661E-01
     0.047     0.339   0.365459E-01
     0.047     0.346   0.351644E-01
     0.047     0.354   0.338275E-01
     0.047     0.362   0.325277E-01
     0.047     0.370   0.312708E-01
     0.047     0.378   0.300494E-01
     0.047     0.386   0.288693E-01
     0.047     0.394   0.277231E-01
     0.047     0.402   0.266165E-01
     0.047     0.409   0.255424E-01
     0.047     0.417   0.245062E-01
     0.047     0.425   0.235010E-01
     0.047     0.433   0.225321E-01
     0.047     0.441   0.215926E-01
     0.047     0.449   0.206880E-01
     0.047     0.457   0.198113E-01
     0.047     0.465   0.189678E-01
     0.047     0.472   0.181509E-01
     0.047     0.480   0.173656E-01
     0.047     0.488   0.166056E-01