Title="Temperature Data"
Variables="X","Y","T"
 
Zone I=   128, J=   128, F=POINT
     0.000     0.000    0.00000    
     0.000     0.008    0.00000    
     0.000     0.016    0.00000    
     0.000     0.024    0.00000    
     0.000     0.031    0.00000    
     0.000     0.039    0.00000    
     0.000     0.047    0.00000    
     0.000     0.055    0.00000    
     0.000     0.063    0.00000    
     0.000     0.071    0.00000    
     0.000     0.079    0.00000    
     0.000     0.087    0.00000    
     0.000     0.094    0.00000    
     0.000     0.102    0.00000    
     0.000     0.110    0.00000    
     0.000     0.118    0.00000    
     0.000     0.126    0.00000    
     0.000     0.134    0.00000    
     0.000     0.142    0.00000    
     0.000     0.150    0.00000    
     0.000     0.157    0.00000    
     0.000     0.165    0.00000    
     0.000     0.173    0.00000    
     0.000     0.181    0.00000    
     0.000     0.189    0.00000    
     0.000     0.197    0.00000    
     0.000     0.205    0.00000    
     0.000     0.213    0.00000    
     0.000     0.220    0.00000    
     0.000     0.228    0.00000    
     0.000     0.236    0.00000    
     0.000     0.244    0.00000    
     0.000     0.252    0.00000    
     0.000     0.260    0.00000    
     0.000     0.268    0.00000    
     0.000     0.276    0.00000    
     0.000     0.283    0.00000    
     0.000     0.291    0.00000    
     0.000     0.299    0.00000    
     0.000     0.307    0.00000    
     0.000     0.315    0.00000    
     0.000     0.323    0.00000    
     0.000     0.331    0.00000    
     0.000     0.339    0.00000    
     0.000     0.346    0.00000    
     0.000     0.354    0.00000    
     0.000     0.362    0.00000    
     0.000     0.370    0.00000    
     0.000     0.378    0.00000    
     0.000     0.386    0.00000    
     0.000     0.394    0.00000    
     0.000     0.402    0.00000    
     0.000     0.409    0.00000    
     0.000     0.417    0.00000    
     0.000     0.425    0.00000    
     0.000     0.433    0.00000    
     0.000     0.441    0.00000    
     0.000     0.449    0.00000    
     0.000     0.457    0.00000    
     0.000     0.465    0.00000    
     0.000     0.472    0.00000    
     0.000     0.480    0.00000    
     0.000     0.488    0.00000    
     0.000     0.496    0.00000    
     0.000     0.504    0.00000    
     0.000     0.512    0.00000    
     0.000     0.520    0.00000    
     0.000     0.528    0.00000    
     0.000     0.535    0.00000    
     0.000     0.543    0.00000    
     0.000     0.551    0.00000    
     0.000     0.559    0.00000    
     0.000     0.567    0.00000    
     0.000     0.575    0.00000    
     0.000     0.583    0.00000    
     0.000     0.591    0.00000    
     0.000     0.598    0.00000    
     0.000     0.606    0.00000    
     0.000     0.614    0.00000    
     0.000     0.622    0.00000    
     0.000     0.630    0.00000    
     0.000     0.638    0.00000    
     0.000     0.646    0.00000    
     0.000     0.654    0.00000    
     0.000     0.661    0.00000    
     0.000     0.669    0.00000    
     0.000     0.677    0.00000    
     0.000     0.685    0.00000    
     0.000     0.693    0.00000    
     0.000     0.701    0.00000    
     0.000     0.709    0.00000    
     0.000     0.717    0.00000    
     0.000     0.724    0.00000    
     0.000     0.732    0.00000    
     0.000     0.740    0.00000    
     0.000     0.748    0.00000    
     0.000     0.756    0.00000    
     0.000     0.764    0.00000    
     0.000     0.772    0.00000    
     0.000     0.780    0.00000    
     0.000     0.787    0.00000    
     0.000     0.795    0.00000    
     0.000     0.803    0.00000    
     0.000     0.811    0.00000    
     0.000     0.819    0.00000    
     0.000     0.827    0.00000    
     0.000     0.835    0.00000    
     0.000     0.843    0.00000    
     0.000     0.850    0.00000    
     0.000     0.858    0.00000    
     0.000     0.866    0.00000    
     0.000     0.874    0.00000    
     0.000     0.882    0.00000    
     0.000     0.890    0.00000    
     0.000     0.898    0.00000    
     0.000     0.906    0.00000    
     0.000     0.913    0.00000    
     0.000     0.921    0.00000    
     0.000     0.929    0.00000    
     0.000     0.937    0.00000    
     0.000     0.945    0.00000    
     0.000     0.953    0.00000    
     0.000     0.961    0.00000    
     0.000     0.969    0.00000    
     0.000     0.976    0.00000    
     0.000     0.984    0.00000    
     0.000     0.992    0.00000    
     0.000     1.000    0.00000    
     0.008     0.000   0.247344E-01
     0.008     0.008   0.241265E-01
     0.008     0.016   0.235334E-01
     0.008     0.024   0.229546E-01
     0.008     0.031   0.223899E-01
     0.008     0.039   0.218389E-01
     0.008     0.047   0.213013E-01
     0.008     0.055   0.207768E-01
     0.008     0.063   0.202649E-01
     0.008     0.071   0.197655E-01
     0.008     0.079   0.192782E-01
     0.008     0.087   0.188026E-01
     0.008     0.094   0.183386E-01
     0.008     0.102   0.178859E-01
     0.008     0.110   0.174441E-01
     0.008     0.118   0.170130E-01
     0.008     0.126   0.165924E-01
     0.008     0.134   0.161819E-01
     0.008     0.142   0.157813E-01
     0.008     0.150   0.153904E-01
     0.008     0.157   0.150090E-01
     0.008     0.165   0.146368E-01
     0.008     0.173   0.142736E-01
     0.008     0.181   0.139191E-01
     0.008     0.189   0.135732E-01
     0.008     0.197   0.132357E-01
     0.008     0.205   0.129063E-01
     0.008     0.213   0.125848E-01
     0.008     0.220   0.122710E-01
     0.008     0.228   0.119648E-01
     0.008     0.236   0.116660E-01
     0.008     0.244   0.113743E-01
     0.008     0.252   0.110897E-01
     0.008     0.260   0.108119E-01
     0.008     0.268   0.105407E-01
     0.008     0.276   0.102760E-01
     0.008     0.283   0.100177E-01
     0.008     0.291   0.976558E-02
     0.008     0.299   0.951947E-02
     0.008     0.307   0.927923E-02
     0.008     0.315   0.904473E-02
     0.008     0.323   0.881580E-02
     0.008     0.331   0.859234E-02
     0.008     0.339   0.837418E-02
     0.008     0.346   0.816121E-02
     0.008     0.354   0.795328E-02
     0.008     0.362   0.775028E-02
     0.008     0.370   0.755208E-02
     0.008     0.378   0.735856E-02
     0.008     0.386   0.716960E-02
     0.008     0.394   0.698510E-02
     0.008     0.402   0.680491E-02
     0.008     0.409   0.662897E-02
     0.008     0.417   0.645713E-02
     0.008     0.425   0.628932E-02
     0.008     0.433   0.612540E-02
     0.008     0.441   0.596531E-02
     0.008     0.449   0.580892E-02
     0.008     0.457   0.565617E-02
     0.008     0.465   0.550692E-02
     0.008     0.472   0.536112E-02
     0.008     0.480   0.521865E-02
     0.008     0.488   0.507945E-02
     0.008     0.496   0.494341E-02
     0.008     0.504   0.481047E-02
     0.008     0.512   0.468053E-02
     0.008     0.520   0.455353E-02
     0.008     0.528   0.442936E-02
     0.008     0.535   0.430799E-02
     0.008     0.543   0.418930E-02
     0.008     0.551   0.407325E-02
     0.008     0.559   0.395974E-02
     0.008     0.567   0.384874E-02
     0.008     0.575   0.374013E-02
     0.008     0.583   0.363390E-02
     0.008     0.591   0.352993E-02
     0.008     0.598   0.342820E-02
     0.008     0.606   0.332861E-02
     0.008     0.614   0.323114E-02
     0.008     0.622   0.313569E-02
     0.008     0.630   0.304223E-02
     0.008     0.638   0.295068E-02
     0.008     0.646   0.286100E-02
     0.008     0.654   0.277312E-02
     0.008     0.661   0.268701E-02
     0.008     0.669   0.260259E-02
     0.008     0.677   0.251982E-02
     0.008     0.685   0.243864E-02
     0.008     0.693   0.235902E-02
     0.008     0.701   0.228088E-02
     0.008     0.709   0.220420E-02
     0.008     0.717   0.212891E-02
     0.008     0.724   0.205499E-02
     0.008     0.732   0.198235E-02
     0.008     0.740   0.191099E-02
     0.008     0.748   0.184084E-02
     0.008     0.756   0.177187E-02
     0.008     0.764   0.170401E-02
     0.008     0.772   0.163726E-02
     0.008     0.780   0.157154E-02
     0.008     0.787   0.150682E-02
     0.008     0.795   0.144307E-02
     0.008     0.803   0.138024E-02
     0.008     0.811   0.131828E-02
     0.008     0.819   0.125718E-02
     0.008     0.827   0.119687E-02
     0.008     0.835   0.113734E-02
     0.008     0.843   0.107852E-02
     0.008     0.850   0.102041E-02
     0.008     0.858   0.962939E-03
     0.008     0.866   0.906092E-03
     0.008     0.874   0.849820E-03
     0.008     0.882   0.794099E-03
     0.008     0.890   0.738882E-03
     0.008     0.898   0.684143E-03
     0.008     0.906   0.629839E-03
     0.008     0.913   0.575943E-03
     0.008     0.921   0.522412E-03
     0.008     0.929   0.469221E-03
     0.008     0.937   0.416328E-03
     0.008     0.945   0.363705E-03
     0.008     0.953   0.311313E-03
     0.008     0.961   0.259124E-03
     0.008     0.969   0.207099E-03
     0.008     0.976   0.155208E-03
     0.008     0.984   0.103416E-03
     0.008     0.992   0.516918E-04
     0.008     1.000    0.00000    
     0.016     0.000   0.494537E-01
     0.016     0.008   0.482383E-01
     0.016     0.016   0.470523E-01
     0.016     0.024   0.458952E-01
     0.016     0.031   0.447662E-01
     0.016     0.039   0.436645E-01
     0.016     0.047   0.425896E-01
     0.016     0.055   0.415408E-01
     0.016     0.063   0.405174E-01
     0.016     0.071   0.395189E-01
     0.016     0.079   0.385445E-01
     0.016     0.087   0.375938E-01
     0.016     0.094   0.366661E-01
     0.016     0.102   0.357608E-01
     0.016     0.110   0.348775E-01
     0.016     0.118   0.340156E-01
     0.016     0.126   0.331745E-01
     0.016     0.134   0.323538E-01
     0.016     0.142   0.315530E-01
     0.016     0.150   0.307715E-01
     0.016     0.157   0.300089E-01
     0.016     0.165   0.292647E-01
     0.016     0.173   0.285384E-01
     0.016     0.181   0.278298E-01
     0.016     0.189   0.271382E-01
     0.016     0.197   0.264633E-01
     0.016     0.205   0.258046E-01
     0.016     0.213   0.251618E-01
     0.016     0.220   0.245345E-01
     0.016     0.228   0.239223E-01
     0.016     0.236   0.233248E-01
     0.016     0.244   0.227417E-01
     0.016     0.252   0.221726E-01
     0.016     0.260   0.216171E-01
     0.016     0.268   0.210749E-01
     0.016     0.276   0.205458E-01
     0.016     0.283   0.200293E-01
     0.016     0.291   0.195252E-01
     0.016     0.299   0.190331E-01
     0.016     0.307   0.185528E-01
     0.016     0.315   0.180839E-01
     0.016     0.323   0.176262E-01
     0.016     0.331   0.171794E-01
     0.016     0.339   0.167432E-01
     0.016     0.346   0.163174E-01
     0.016     0.354   0.159017E-01
     0.016     0.362   0.154958E-01
     0.016     0.370   0.150995E-01
     0.016     0.378   0.147126E-01
     0.016     0.386   0.143348E-01
     0.016     0.394   0.139659E-01
     0.016     0.402   0.136057E-01
     0.016     0.409   0.132539E-01
     0.016     0.417   0.129103E-01
     0.016     0.425   0.125748E-01
     0.016     0.433   0.122471E-01
     0.016     0.441   0.119270E-01
     0.016     0.449   0.116143E-01
     0.016     0.457   0.113089E-01
     0.016     0.465   0.110105E-01
     0.016     0.472   0.107189E-01
     0.016     0.480   0.104341E-01
     0.016     0.488   0.101558E-01
     0.016     0.496   0.988381E-02
     0.016     0.504   0.961799E-02
     0.016     0.512   0.935821E-02
     0.016     0.520   0.910426E-02
     0.016     0.528   0.885603E-02
     0.016     0.535   0.861333E-02
     0.016     0.543   0.837605E-02
     0.016     0.551   0.814399E-02
     0.016     0.559   0.791708E-02
     0.016     0.567   0.769510E-02
     0.016     0.575   0.747799E-02
     0.016     0.583   0.726555E-02
     0.016     0.591   0.705771E-02
     0.016     0.598   0.685429E-02
     0.016     0.606   0.665520E-02
     0.016     0.614   0.646029E-02
     0.016     0.622   0.626947E-02
     0.016     0.630   0.608258E-02
     0.016     0.638   0.589956E-02
     0.016     0.646   0.572024E-02
     0.016     0.654   0.554456E-02
     0.016     0.661   0.537237E-02
     0.016     0.669   0.520359E-02
     0.016     0.677   0.503809E-02
     0.016     0.685   0.487580E-02
     0.016     0.693   0.471658E-02
     0.016     0.701   0.456038E-02
     0.016     0.709   0.440704E-02
     0.016     0.717   0.425653E-02
     0.016     0.724   0.410870E-02
     0.016     0.732   0.396351E-02
     0.016     0.740   0.382081E-02
     0.016     0.748   0.368056E-02
     0.016     0.756   0.354264E-02
     0.016     0.764   0.340700E-02
     0.016     0.772   0.327350E-02
     0.016     0.780   0.314212E-02
     0.016     0.787   0.301272E-02
     0.016     0.795   0.288526E-02
     0.016     0.803   0.275962E-02
     0.016     0.811   0.263577E-02
     0.016     0.819   0.251358E-02
     0.016     0.827   0.239302E-02
     0.016     0.835   0.227397E-02
     0.016     0.843   0.215640E-02
     0.016     0.850   0.204019E-02
     0.016     0.858   0.192529E-02
     0.016     0.866   0.181162E-02
     0.016     0.874   0.169913E-02
     0.016     0.882   0.158771E-02
     0.016     0.890   0.147732E-02
     0.016     0.898   0.136786E-02
     0.016     0.906   0.125930E-02
     0.016     0.913   0.115153E-02
     0.016     0.921   0.104451E-02
     0.016     0.929   0.938152E-03
     0.016     0.937   0.832404E-03
     0.016     0.945   0.727185E-03
     0.016     0.953   0.622438E-03
     0.016     0.961   0.518087E-03
     0.016     0.969   0.414072E-03
     0.016     0.976   0.310320E-03
     0.016     0.984   0.206770E-03
     0.016     0.992   0.103352E-03
     0.016     1.000    0.00000    
     0.024     0.000   0.741428E-01
     0.024     0.008   0.723205E-01
     0.024     0.016   0.705425E-01
     0.024     0.024   0.688077E-01
     0.024     0.031   0.671150E-01
     0.024     0.039   0.654634E-01
     0.024     0.047   0.638519E-01
     0.024     0.055   0.622794E-01
     0.024     0.063   0.607451E-01
     0.024     0.071   0.592481E-01
     0.024     0.079   0.577873E-01
     0.024     0.087   0.563619E-01
     0.024     0.094   0.549711E-01
     0.024     0.102   0.536139E-01
     0.024     0.110   0.522896E-01
     0.024     0.118   0.509974E-01
     0.024     0.126   0.497364E-01
     0.024     0.134   0.485060E-01
     0.024     0.142   0.473053E-01
     0.024     0.150   0.461337E-01
     0.024     0.157   0.449903E-01
     0.024     0.165   0.438746E-01
     0.024     0.173   0.427858E-01
     0.024     0.181   0.417233E-01
     0.024     0.189   0.406865E-01
     0.024     0.197   0.396746E-01
     0.024     0.205   0.386872E-01
     0.024     0.213   0.377235E-01
     0.024     0.220   0.367830E-01
     0.024     0.228   0.358652E-01
     0.024     0.236   0.349694E-01
     0.024     0.244   0.340951E-01
     0.024     0.252   0.332419E-01
     0.024     0.260   0.324091E-01
     0.024     0.268   0.315963E-01
     0.024     0.276   0.308030E-01
     0.024     0.283   0.300287E-01
     0.024     0.291   0.292728E-01
     0.024     0.299   0.285351E-01
     0.024     0.307   0.278150E-01
     0.024     0.315   0.271121E-01
     0.024     0.323   0.264258E-01
     0.024     0.331   0.257560E-01
     0.024     0.339   0.251020E-01
     0.024     0.346   0.244637E-01
     0.024     0.354   0.238404E-01
     0.024     0.362   0.232319E-01
     0.024     0.370   0.226378E-01
     0.024     0.378   0.220577E-01
     0.024     0.386   0.214913E-01
     0.024     0.394   0.209382E-01
     0.024     0.402   0.203981E-01
     0.024     0.409   0.198707E-01
     0.024     0.417   0.193556E-01
     0.024     0.425   0.188526E-01
     0.024     0.433   0.183612E-01
     0.024     0.441   0.178813E-01
     0.024     0.449   0.174126E-01
     0.024     0.457   0.169547E-01
     0.024     0.465   0.165073E-01
     0.024     0.472   0.160702E-01
     0.024     0.480   0.156432E-01
     0.024     0.488   0.152259E-01
     0.024     0.496   0.148181E-01
     0.024     0.504   0.144196E-01
     0.024     0.512   0.140301E-01
     0.024     0.520   0.136494E-01
     0.024     0.528   0.132773E-01
     0.024     0.535   0.129134E-01
     0.024     0.543   0.125576E-01
     0.024     0.551   0.122098E-01
     0.024     0.559   0.118695E-01
     0.024     0.567   0.115368E-01
     0.024     0.575   0.112112E-01
     0.024     0.583   0.108928E-01
     0.024     0.591   0.105811E-01
     0.024     0.598   0.102762E-01
     0.024     0.606   0.997769E-02
     0.024     0.614   0.968551E-02
     0.024     0.622   0.939939E-02
     0.024     0.630   0.911924E-02
     0.024     0.638   0.884481E-02
     0.024     0.646   0.857601E-02
     0.024     0.654   0.831259E-02
     0.024     0.661   0.805446E-02
     0.024     0.669   0.780139E-02
     0.024     0.677   0.755330E-02
     0.024     0.685   0.730996E-02
     0.024     0.693   0.707129E-02
     0.024     0.701   0.683706E-02
     0.024     0.709   0.660721E-02
     0.024     0.717   0.638153E-02
     0.024     0.724   0.615993E-02
     0.024     0.732   0.594221E-02
     0.024     0.740   0.572831E-02
     0.024     0.748   0.551801E-02
     0.024     0.756   0.531127E-02
     0.024     0.764   0.510787E-02
     0.024     0.772   0.490777E-02
     0.024     0.780   0.471076E-02
     0.024     0.787   0.451679E-02
     0.024     0.795   0.432567E-02
     0.024     0.803   0.413734E-02
     0.024     0.811   0.395163E-02
     0.024     0.819   0.376847E-02
     0.024     0.827   0.358769E-02
     0.024     0.835   0.340923E-02
     0.024     0.843   0.323294E-02
     0.024     0.850   0.305873E-02
     0.024     0.858   0.288646E-02
     0.024     0.866   0.271606E-02
     0.024     0.874   0.254738E-02
     0.024     0.882   0.238035E-02
     0.024     0.890   0.221484E-02
     0.024     0.898   0.205075E-02
     0.024     0.906   0.188797E-02
     0.024     0.913   0.172642E-02
     0.024     0.921   0.156596E-02
     0.024     0.929   0.140652E-02
     0.024     0.937   0.124797E-02
     0.024     0.945   0.109023E-02
     0.024     0.953   0.933178E-03
     0.024     0.961   0.776737E-03
     0.024     0.969   0.620789E-03
     0.024     0.976   0.465245E-03
     0.024     0.984   0.309996E-03
     0.024     0.992   0.154949E-03
     0.024     1.000    0.00000    
     0.031     0.000   0.987864E-01
     0.031     0.008   0.963585E-01
     0.031     0.016   0.939895E-01
     0.031     0.024   0.916781E-01
     0.031     0.031   0.894228E-01
     0.031     0.039   0.872222E-01
     0.031     0.047   0.850750E-01
     0.031     0.055   0.829800E-01
     0.031     0.063   0.809357E-01
     0.031     0.071   0.789410E-01
     0.031     0.079   0.769947E-01
     0.031     0.087   0.750955E-01
     0.031     0.094   0.732424E-01
     0.031     0.102   0.714342E-01
     0.031     0.110   0.696697E-01
     0.031     0.118   0.679480E-01
     0.031     0.126   0.662679E-01
     0.031     0.134   0.646285E-01
     0.031     0.142   0.630287E-01
     0.031     0.150   0.614676E-01
     0.031     0.157   0.599443E-01
     0.031     0.165   0.584577E-01
     0.031     0.173   0.570070E-01
     0.031     0.181   0.555914E-01
     0.031     0.189   0.542099E-01
     0.031     0.197   0.528617E-01
     0.031     0.205   0.515460E-01
     0.031     0.213   0.502621E-01
     0.031     0.220   0.490090E-01
     0.031     0.228   0.477861E-01
     0.031     0.236   0.465925E-01
     0.031     0.244   0.454277E-01
     0.031     0.252   0.442909E-01
     0.031     0.260   0.431813E-01
     0.031     0.268   0.420983E-01
     0.031     0.276   0.410413E-01
     0.031     0.283   0.400096E-01
     0.031     0.291   0.390026E-01
     0.031     0.299   0.380196E-01
     0.031     0.307   0.370602E-01
     0.031     0.315   0.361236E-01
     0.031     0.323   0.352093E-01
     0.031     0.331   0.343168E-01
     0.031     0.339   0.334455E-01
     0.031     0.346   0.325949E-01
     0.031     0.354   0.317645E-01
     0.031     0.362   0.309537E-01
     0.031     0.370   0.301621E-01
     0.031     0.378   0.293892E-01
     0.031     0.386   0.286346E-01
     0.031     0.394   0.278976E-01
     0.031     0.402   0.271781E-01
     0.031     0.409   0.264753E-01
     0.031     0.417   0.257891E-01
     0.031     0.425   0.251188E-01
     0.031     0.433   0.244642E-01
     0.031     0.441   0.238247E-01
     0.031     0.449   0.232002E-01
     0.031     0.457   0.225900E-01
     0.031     0.465   0.219940E-01
     0.031     0.472   0.214116E-01
     0.031     0.480   0.208427E-01
     0.031     0.488   0.202867E-01
     0.031     0.496   0.197434E-01
     0.031     0.504   0.192124E-01
     0.031     0.512   0.186935E-01
     0.031     0.520   0.181862E-01
     0.031     0.528   0.176904E-01
     0.031     0.535   0.172056E-01
     0.031     0.543   0.167316E-01
     0.031     0.551   0.162681E-01
     0.031     0.559   0.158148E-01
     0.031     0.567   0.153714E-01
     0.031     0.575   0.149377E-01
     0.031     0.583   0.145133E-01
     0.031     0.591   0.140982E-01
     0.031     0.598   0.136918E-01
     0.031     0.606   0.132941E-01
     0.031     0.614   0.129048E-01
     0.031     0.622   0.125236E-01
     0.031     0.630   0.121503E-01
     0.031     0.638   0.117847E-01
     0.031     0.646   0.114265E-01
     0.031     0.654   0.110756E-01
     0.031     0.661   0.107316E-01
     0.031     0.669   0.103945E-01
     0.031     0.677   0.100639E-01
     0.031     0.685   0.973968E-02
     0.031     0.693   0.942162E-02
     0.031     0.701   0.910960E-02
     0.031     0.709   0.880330E-02
     0.031     0.717   0.850265E-02
     0.031     0.724   0.820735E-02
     0.031     0.732   0.791731E-02
     0.031     0.740   0.763227E-02
     0.031     0.748   0.735212E-02
     0.031     0.756   0.707661E-02
     0.031     0.764   0.680566E-02
     0.031     0.772   0.653900E-02
     0.031     0.780   0.627655E-02
     0.031     0.787   0.601806E-02
     0.031     0.795   0.576346E-02
     0.031     0.803   0.551250E-02
     0.031     0.811   0.526509E-02
     0.031     0.819   0.502102E-02
     0.031     0.827   0.478019E-02
     0.031     0.835   0.454238E-02
     0.031     0.843   0.430752E-02
     0.031     0.850   0.407538E-02
     0.031     0.858   0.384588E-02
     0.031     0.866   0.361882E-02
     0.031     0.874   0.339410E-02
     0.031     0.882   0.317153E-02
     0.031     0.890   0.295102E-02
     0.031     0.898   0.273238E-02
     0.031     0.906   0.251551E-02
     0.031     0.913   0.230024E-02
     0.031     0.921   0.208646E-02
     0.031     0.929   0.187401E-02
     0.031     0.937   0.166277E-02
     0.031     0.945   0.145259E-02
     0.031     0.953   0.124335E-02
     0.031     0.961   0.103491E-02
     0.031     0.969   0.827131E-03
     0.031     0.976   0.619882E-03
     0.031     0.984   0.413035E-03
     0.031     0.992   0.206450E-03
     0.031     1.000    0.00000    
     0.039     0.000   0.123370    
     0.039     0.008   0.120338    
     0.039     0.016   0.117379    
     0.039     0.024   0.114492    
     0.039     0.031   0.111676    
     0.039     0.039   0.108928    
     0.039     0.047   0.106246    
     0.039     0.055   0.103630    
     0.039     0.063   0.101077    
     0.039     0.071   0.985857E-01
     0.039     0.079   0.961550E-01
     0.039     0.087   0.937832E-01
     0.039     0.094   0.914689E-01
     0.039     0.102   0.892107E-01
     0.039     0.110   0.870072E-01
     0.039     0.118   0.848570E-01
     0.039     0.126   0.827588E-01
     0.039     0.134   0.807114E-01
     0.039     0.142   0.787136E-01
     0.039     0.150   0.767640E-01
     0.039     0.157   0.748616E-01
     0.039     0.165   0.730050E-01
     0.039     0.173   0.711934E-01
     0.039     0.181   0.694254E-01
     0.039     0.189   0.677002E-01
     0.039     0.197   0.660165E-01
     0.039     0.205   0.643734E-01
     0.039     0.213   0.627699E-01
     0.039     0.220   0.612050E-01
     0.039     0.228   0.596777E-01
     0.039     0.236   0.581872E-01
     0.039     0.244   0.567325E-01
     0.039     0.252   0.553128E-01
     0.039     0.260   0.539270E-01
     0.039     0.268   0.525746E-01
     0.039     0.276   0.512545E-01
     0.039     0.283   0.499661E-01
     0.039     0.291   0.487085E-01
     0.039     0.299   0.474809E-01
     0.039     0.307   0.462827E-01
     0.039     0.315   0.451130E-01
     0.039     0.323   0.439712E-01
     0.039     0.331   0.428566E-01
     0.039     0.339   0.417685E-01
     0.039     0.346   0.407062E-01
     0.039     0.354   0.396691E-01
     0.039     0.362   0.386566E-01
     0.039     0.370   0.376680E-01
     0.039     0.378   0.367028E-01
     0.039     0.386   0.357603E-01
     0.039     0.394   0.348401E-01
     0.039     0.402   0.339413E-01
     0.039     0.409   0.330638E-01
     0.039     0.417   0.322067E-01
     0.039     0.425   0.313697E-01
     0.039     0.433   0.305521E-01
     0.039     0.441   0.297536E-01
     0.039     0.449   0.289736E-01
     0.039     0.457   0.282117E-01
     0.039     0.465   0.274672E-01
     0.039     0.472   0.267400E-01
     0.039     0.480   0.260294E-01
     0.039     0.488   0.253351E-01
     0.039     0.496   0.246566E-01
     0.039     0.504   0.239935E-01
     0.039     0.512   0.233454E-01
     0.039     0.520   0.227120E-01
     0.039     0.528   0.220927E-01
     0.039     0.535   0.214873E-01
     0.039     0.543   0.208953E-01
     0.039     0.551   0.203164E-01
     0.039     0.559   0.197503E-01
     0.039     0.567   0.191966E-01
     0.039     0.575   0.186549E-01
     0.039     0.583   0.181250E-01
     0.039     0.591   0.176065E-01
     0.039     0.598   0.170991E-01
     0.039     0.606   0.166024E-01
     0.039     0.614   0.161162E-01
     0.039     0.622   0.156401E-01
     0.039     0.630   0.151739E-01
     0.039     0.638   0.147173E-01
     0.039     0.646   0.142700E-01
     0.039     0.654   0.138317E-01
     0.039     0.661   0.134022E-01
     0.039     0.669   0.129811E-01
     0.039     0.677   0.125683E-01
     0.039     0.685   0.121634E-01
     0.039     0.693   0.117662E-01
     0.039     0.701   0.113765E-01
     0.039     0.709   0.109941E-01
     0.039     0.717   0.106185E-01
     0.039     0.724   0.102498E-01
     0.039     0.732   0.988752E-02
     0.039     0.740   0.953160E-02
     0.039     0.748   0.918169E-02
     0.039     0.756   0.883767E-02
     0.039     0.764   0.849923E-02
     0.039     0.772   0.816627E-02
     0.039     0.780   0.783846E-02
     0.039     0.787   0.751569E-02
     0.039     0.795   0.719768E-02
     0.039     0.803   0.688431E-02
     0.039     0.811   0.657530E-02
     0.039     0.819   0.627053E-02
     0.039     0.827   0.596973E-02
     0.039     0.835   0.567278E-02
     0.039     0.843   0.537943E-02
     0.039     0.850   0.508956E-02
     0.039     0.858   0.480292E-02
     0.039     0.866   0.451938E-02
     0.039     0.874   0.423871E-02
     0.039     0.882   0.396078E-02
     0.039     0.890   0.368537E-02
     0.039     0.898   0.341235E-02
     0.039     0.906   0.314149E-02
     0.039     0.913   0.287267E-02
     0.039     0.921   0.260567E-02
     0.039     0.929   0.234037E-02
     0.039     0.937   0.207655E-02
     0.039     0.945   0.181408E-02
     0.039     0.953   0.155276E-02
     0.039     0.961   0.129245E-02
     0.039     0.969   0.103296E-02
     0.039     0.976   0.774143E-03
     0.039     0.984   0.515817E-03
     0.039     0.992   0.257827E-03
     0.039     1.000    0.00000    
     0.047     0.000   0.147877    
     0.047     0.008   0.144243    
     0.047     0.016   0.140697    
     0.047     0.024   0.137237    
     0.047     0.031   0.133861    
     0.047     0.039   0.130566    
     0.047     0.047   0.127352    
     0.047     0.055   0.124216    
     0.047     0.063   0.121156    
     0.047     0.071   0.118170    
     0.047     0.079   0.115256    
     0.047     0.087   0.112414    
     0.047     0.094   0.109639    
     0.047     0.102   0.106933    
     0.047     0.110   0.104291    
     0.047     0.118   0.101714    
     0.047     0.126   0.991991E-01
     0.047     0.134   0.967450E-01
     0.047     0.142   0.943502E-01
     0.047     0.150   0.920134E-01
     0.047     0.157   0.897330E-01
     0.047     0.165   0.875077E-01
     0.047     0.173   0.853361E-01
     0.047     0.181   0.832170E-01
     0.047     0.189   0.811490E-01
     0.047     0.197   0.791309E-01
     0.047     0.205   0.771614E-01
     0.047     0.213   0.752393E-01
     0.047     0.220   0.733635E-01
     0.047     0.228   0.715329E-01
     0.047     0.236   0.697463E-01
     0.047     0.244   0.680026E-01
     0.047     0.252   0.663008E-01
     0.047     0.260   0.646398E-01
     0.047     0.268   0.630187E-01
     0.047     0.276   0.614364E-01
     0.047     0.283   0.598920E-01
     0.047     0.291   0.583846E-01
     0.047     0.299   0.569131E-01
     0.047     0.307   0.554769E-01
     0.047     0.315   0.540748E-01
     0.047     0.323   0.527063E-01
     0.047     0.331   0.513702E-01
     0.047     0.339   0.500659E-01
     0.047     0.346   0.487926E-01
     0.047     0.354   0.475495E-01
     0.047     0.362   0.463358E-01
     0.047     0.370   0.451509E-01
     0.047     0.378   0.439939E-01
     0.047     0.386   0.428642E-01
     0.047     0.394   0.417611E-01
     0.047     0.402   0.406839E-01
     0.047     0.409   0.396320E-01
     0.047     0.417   0.386047E-01
     0.047     0.425   0.376013E-01
     0.047     0.433   0.366214E-01
     0.047     0.441   0.356642E-01
     0.047     0.449   0.347293E-01
     0.047     0.457   0.338159E-01
     0.047     0.465   0.329237E-01
     0.047     0.472   0.320520E-01
     0.047     0.480   0.312003E-01
     0.047     0.488   0.303680E-01