Title="Temperature Data"
Variables="X","Y","T"
 
Zone I=   128, J=   128, F=POINT
     0.000     0.000    0.00000    
     0.000     0.008    0.00000    
     0.000     0.016    0.00000    
     0.000     0.024    0.00000    
     0.000     0.031    0.00000    
     0.000     0.039    0.00000    
     0.000     0.047    0.00000    
     0.000     0.055    0.00000    
     0.000     0.063    0.00000    
     0.000     0.071    0.00000    
     0.000     0.079    0.00000    
     0.000     0.087    0.00000    
     0.000     0.094    0.00000    
     0.000     0.102    0.00000    
     0.000     0.110    0.00000    
     0.000     0.118    0.00000    
     0.000     0.126    0.00000    
     0.000     0.134    0.00000    
     0.000     0.142    0.00000    
     0.000     0.150    0.00000    
     0.000     0.157    0.00000    
     0.000     0.165    0.00000    
     0.000     0.173    0.00000    
     0.000     0.181    0.00000    
     0.000     0.189    0.00000    
     0.000     0.197    0.00000    
     0.000     0.205    0.00000    
     0.000     0.213    0.00000    
     0.000     0.220    0.00000    
     0.000     0.228    0.00000    
     0.000     0.236    0.00000    
     0.000     0.244    0.00000    
     0.000     0.252    0.00000    
     0.000     0.260    0.00000    
     0.000     0.268    0.00000    
     0.000     0.276    0.00000    
     0.000     0.283    0.00000    
     0.000     0.291    0.00000    
     0.000     0.299    0.00000    
     0.000     0.307    0.00000    
     0.000     0.315    0.00000    
     0.000     0.323    0.00000    
     0.000     0.331    0.00000    
     0.000     0.339    0.00000    
     0.000     0.346    0.00000    
     0.000     0.354    0.00000    
     0.000     0.362    0.00000    
     0.000     0.370    0.00000    
     0.000     0.378    0.00000    
     0.000     0.386    0.00000    
     0.000     0.394    0.00000    
     0.000     0.402    0.00000    
     0.000     0.409    0.00000    
     0.000     0.417    0.00000    
     0.000     0.425    0.00000    
     0.000     0.433    0.00000    
     0.000     0.441    0.00000    
     0.000     0.449    0.00000    
     0.000     0.457    0.00000    
     0.000     0.465    0.00000    
     0.000     0.472    0.00000    
     0.000     0.480    0.00000    
     0.000     0.488    0.00000    
     0.000     0.496    0.00000    
     0.000     0.504    0.00000    
     0.000     0.512    0.00000    
     0.000     0.520    0.00000    
     0.000     0.528    0.00000    
     0.000     0.535    0.00000    
     0.000     0.543    0.00000    
     0.000     0.551    0.00000    
     0.000     0.559    0.00000    
     0.000     0.567    0.00000    
     0.000     0.575    0.00000    
     0.000     0.583    0.00000    
     0.000     0.591    0.00000    
     0.000     0.598    0.00000    
     0.000     0.606    0.00000    
     0.000     0.614    0.00000    
     0.000     0.622    0.00000    
     0.000     0.630    0.00000    
     0.000     0.638    0.00000    
     0.000     0.646    0.00000    
     0.000     0.654    0.00000    
     0.000     0.661    0.00000    
     0.000     0.669    0.00000    
     0.000     0.677    0.00000    
     0.000     0.685    0.00000    
     0.000     0.693    0.00000    
     0.000     0.701    0.00000    
     0.000     0.709    0.00000    
     0.000     0.717    0.00000    
     0.000     0.724    0.00000    
     0.000     0.732    0.00000    
     0.000     0.740    0.00000    
     0.000     0.748    0.00000    
     0.000     0.756    0.00000    
     0.000     0.764    0.00000    
     0.000     0.772    0.00000    
     0.000     0.780    0.00000    
     0.000     0.787    0.00000    
     0.000     0.795    0.00000    
     0.000     0.803    0.00000    
     0.000     0.811    0.00000    
     0.000     0.819    0.00000    
     0.000     0.827    0.00000    
     0.000     0.835    0.00000    
     0.000     0.843    0.00000    
     0.000     0.850    0.00000    
     0.000     0.858    0.00000    
     0.000     0.866    0.00000    
     0.000     0.874    0.00000    
     0.000     0.882    0.00000    
     0.000     0.890    0.00000    
     0.000     0.898    0.00000    
     0.000     0.906    0.00000    
     0.000     0.913    0.00000    
     0.000     0.921    0.00000    
     0.000     0.929    0.00000    
     0.000     0.937    0.00000    
     0.000     0.945    0.00000    
     0.000     0.953    0.00000    
     0.000     0.961    0.00000    
     0.000     0.969    0.00000    
     0.000     0.976    0.00000    
     0.000     0.984    0.00000    
     0.000     0.992    0.00000    
     0.000     1.000    0.00000    
     0.008     0.000   0.247344E-01
     0.008     0.008   0.241113E-01
     0.008     0.016   0.235030E-01
     0.008     0.024   0.229090E-01
     0.008     0.031   0.223292E-01
     0.008     0.039   0.217631E-01
     0.008     0.047   0.212105E-01
     0.008     0.055   0.206709E-01
     0.008     0.063   0.201441E-01
     0.008     0.071   0.196298E-01
     0.008     0.079   0.191278E-01
     0.008     0.087   0.186376E-01
     0.008     0.094   0.181591E-01
     0.008     0.102   0.176919E-01
     0.008     0.110   0.172359E-01
     0.008     0.118   0.167906E-01
     0.008     0.126   0.163560E-01
     0.008     0.134   0.159317E-01
     0.008     0.142   0.155175E-01
     0.008     0.150   0.151131E-01
     0.008     0.157   0.147185E-01
     0.008     0.165   0.143331E-01
     0.008     0.173   0.139571E-01
     0.008     0.181   0.135899E-01
     0.008     0.189   0.132316E-01
     0.008     0.197   0.128818E-01
     0.008     0.205   0.125404E-01
     0.008     0.213   0.122071E-01
     0.008     0.220   0.118820E-01
     0.008     0.228   0.115645E-01
     0.008     0.236   0.112548E-01
     0.008     0.244   0.109523E-01
     0.008     0.252   0.106574E-01
     0.008     0.260   0.103694E-01
     0.008     0.268   0.100884E-01
     0.008     0.276   0.981420E-02
     0.008     0.283   0.954673E-02
     0.008     0.291   0.928560E-02
     0.008     0.299   0.903096E-02
     0.008     0.307   0.878237E-02
     0.008     0.315   0.853999E-02
     0.008     0.323   0.830337E-02
     0.008     0.331   0.807269E-02
     0.008     0.339   0.784751E-02
     0.008     0.346   0.762800E-02
     0.008     0.354   0.741372E-02
     0.008     0.362   0.720489E-02
     0.008     0.370   0.700103E-02
     0.008     0.378   0.680238E-02
     0.008     0.386   0.660848E-02
     0.008     0.394   0.641955E-02
     0.008     0.402   0.623515E-02
     0.008     0.409   0.605551E-02
     0.008     0.417   0.588017E-02
     0.008     0.425   0.570938E-02
     0.008     0.433   0.554269E-02
     0.008     0.441   0.538036E-02
     0.008     0.449   0.522193E-02
     0.008     0.457   0.506766E-02
     0.008     0.465   0.491710E-02
     0.008     0.472   0.477053E-02
     0.008     0.480   0.462748E-02
     0.008     0.488   0.448823E-02
     0.008     0.496   0.435234E-02
     0.008     0.504   0.422008E-02
     0.008     0.512   0.409101E-02
     0.008     0.520   0.396540E-02
     0.008     0.528   0.384283E-02
     0.008     0.535   0.372356E-02
     0.008     0.543   0.360717E-02
     0.008     0.551   0.349393E-02
     0.008     0.559   0.338342E-02
     0.008     0.567   0.327591E-02
     0.008     0.575   0.317099E-02
     0.008     0.583   0.306893E-02
     0.008     0.591   0.296932E-02
     0.008     0.598   0.287243E-02
     0.008     0.606   0.277786E-02
     0.008     0.614   0.268588E-02
     0.008     0.622   0.259609E-02
     0.008     0.630   0.250876E-02
     0.008     0.638   0.242349E-02
     0.008     0.646   0.234056E-02
     0.008     0.654   0.225958E-02
     0.008     0.661   0.218080E-02
     0.008     0.669   0.210386E-02
     0.008     0.677   0.202900E-02
     0.008     0.685   0.195588E-02
     0.008     0.693   0.188471E-02
     0.008     0.701   0.181518E-02
     0.008     0.709   0.174749E-02
     0.008     0.717   0.168133E-02
     0.008     0.724   0.161690E-02
     0.008     0.732   0.155390E-02
     0.008     0.740   0.149252E-02
     0.008     0.748   0.143248E-02
     0.008     0.756   0.137395E-02
     0.008     0.764   0.131665E-02
     0.008     0.772   0.126077E-02
     0.008     0.780   0.120603E-02
     0.008     0.787   0.115261E-02
     0.008     0.795   0.110024E-02
     0.008     0.803   0.104907E-02
     0.008     0.811   0.998878E-03
     0.008     0.819   0.949793E-03
     0.008     0.827   0.901592E-03
     0.008     0.835   0.854402E-03
     0.008     0.843   0.808013E-03
     0.008     0.850   0.762540E-03
     0.008     0.858   0.717786E-03
     0.008     0.866   0.673852E-03
     0.008     0.874   0.630558E-03
     0.008     0.882   0.587990E-03
     0.008     0.890   0.545983E-03
     0.008     0.898   0.504610E-03
     0.008     0.906   0.463721E-03
     0.008     0.913   0.423373E-03
     0.008     0.921   0.383433E-03
     0.008     0.929   0.343943E-03
     0.008     0.937   0.304786E-03
     0.008     0.945   0.265987E-03
     0.008     0.953   0.227447E-03
     0.008     0.961   0.189176E-03
     0.008     0.969   0.151088E-03
     0.008     0.976   0.113179E-03
     0.008     0.984   0.753811E-04
     0.008     0.992   0.376722E-04
     0.008     1.000    0.00000    
     0.016     0.000   0.494537E-01
     0.016     0.008   0.482079E-01
     0.016     0.016   0.469915E-01
     0.016     0.024   0.458041E-01
     0.016     0.031   0.446447E-01
     0.016     0.039   0.435129E-01
     0.016     0.047   0.424079E-01
     0.016     0.055   0.413291E-01
     0.016     0.063   0.402759E-01
     0.016     0.071   0.392477E-01
     0.016     0.079   0.382438E-01
     0.016     0.087   0.372639E-01
     0.016     0.094   0.363071E-01
     0.016     0.102   0.353731E-01
     0.016     0.110   0.344612E-01
     0.016     0.118   0.335711E-01
     0.016     0.126   0.327020E-01
     0.016     0.134   0.318537E-01
     0.016     0.142   0.310255E-01
     0.016     0.150   0.302171E-01
     0.016     0.157   0.294279E-01
     0.016     0.165   0.286576E-01
     0.016     0.173   0.279055E-01
     0.016     0.181   0.271716E-01
     0.016     0.189   0.264550E-01
     0.016     0.197   0.257558E-01
     0.016     0.205   0.250731E-01
     0.016     0.213   0.244069E-01
     0.016     0.220   0.237565E-01
     0.016     0.228   0.231220E-01
     0.016     0.236   0.225025E-01
     0.016     0.244   0.218981E-01
     0.016     0.252   0.213081E-01
     0.016     0.260   0.207325E-01
     0.016     0.268   0.201706E-01
     0.016     0.276   0.196225E-01
     0.016     0.283   0.190875E-01
     0.016     0.291   0.185657E-01
     0.016     0.299   0.180563E-01
     0.016     0.307   0.175595E-01
     0.016     0.315   0.170746E-01
     0.016     0.323   0.166018E-01
     0.016     0.331   0.161403E-01
     0.016     0.339   0.156904E-01
     0.016     0.346   0.152512E-01
     0.016     0.354   0.148231E-01
     0.016     0.362   0.144052E-01
     0.016     0.370   0.139980E-01
     0.016     0.378   0.136004E-01
     0.016     0.386   0.132131E-01
     0.016     0.394   0.128350E-01
     0.016     0.402   0.124667E-01
     0.016     0.409   0.121071E-01
     0.016     0.417   0.117569E-01
     0.016     0.425   0.114151E-01
     0.016     0.433   0.110822E-01
     0.016     0.441   0.107573E-01
     0.016     0.449   0.104408E-01
     0.016     0.457   0.101320E-01
     0.016     0.465   0.983138E-02
     0.016     0.472   0.953795E-02
     0.016     0.480   0.925230E-02
     0.016     0.488   0.897354E-02
     0.016     0.496   0.870220E-02
     0.016     0.504   0.843740E-02
     0.016     0.512   0.817969E-02
     0.016     0.520   0.792820E-02
     0.016     0.528   0.768348E-02
     0.016     0.535   0.744466E-02
     0.016     0.543   0.721230E-02
     0.016     0.551   0.698554E-02
     0.016     0.559   0.676493E-02
     0.016     0.567   0.654964E-02
     0.016     0.575   0.634021E-02
     0.016     0.583   0.613581E-02
     0.016     0.591   0.593699E-02
     0.016     0.598   0.574294E-02
     0.016     0.606   0.555419E-02
     0.016     0.614   0.536996E-02
     0.016     0.622   0.519076E-02
     0.016     0.630   0.501582E-02
     0.016     0.638   0.484566E-02
     0.016     0.646   0.467953E-02
     0.016     0.654   0.451792E-02
     0.016     0.661   0.436011E-02
     0.016     0.669   0.420658E-02
     0.016     0.677   0.405662E-02
     0.016     0.685   0.391070E-02
     0.016     0.693   0.376814E-02
     0.016     0.701   0.362938E-02
     0.016     0.709   0.349378E-02
     0.016     0.717   0.336176E-02
     0.016     0.724   0.323269E-02
     0.016     0.732   0.310697E-02
     0.016     0.740   0.298401E-02
     0.016     0.748   0.286419E-02
     0.016     0.756   0.274694E-02
     0.016     0.764   0.263261E-02
     0.016     0.772   0.252066E-02
     0.016     0.780   0.241144E-02
     0.016     0.787   0.230441E-02
     0.016     0.795   0.219990E-02
     0.016     0.803   0.209741E-02
     0.016     0.811   0.199724E-02
     0.016     0.819   0.189892E-02
     0.016     0.827   0.180272E-02
     0.016     0.835   0.170820E-02
     0.016     0.843   0.161561E-02
     0.016     0.850   0.152454E-02
     0.016     0.858   0.143520E-02
     0.016     0.866   0.134722E-02
     0.016     0.874   0.126079E-02
     0.016     0.882   0.117556E-02
     0.016     0.890   0.109169E-02
     0.016     0.898   0.100886E-02
     0.016     0.906   0.927206E-03
     0.016     0.913   0.846444E-03
     0.016     0.921   0.766672E-03
     0.016     0.929   0.687640E-03
     0.016     0.937   0.609417E-03
     0.016     0.945   0.531784E-03
     0.016     0.953   0.454779E-03
     0.016     0.961   0.378215E-03
     0.016     0.969   0.302099E-03
     0.016     0.976   0.226278E-03
     0.016     0.984   0.150724E-03
     0.016     0.992   0.753173E-04
     0.016     1.000    0.00000    
     0.024     0.000   0.741428E-01
     0.024     0.008   0.722749E-01
     0.024     0.016   0.704514E-01
     0.024     0.024   0.686711E-01
     0.024     0.031   0.669330E-01
     0.024     0.039   0.652361E-01
     0.024     0.047   0.635795E-01
     0.024     0.055   0.619620E-01
     0.024     0.063   0.603831E-01
     0.024     0.071   0.588415E-01
     0.024     0.079   0.573366E-01
     0.024     0.087   0.558672E-01
     0.024     0.094   0.544329E-01
     0.024     0.102   0.530325E-01
     0.024     0.110   0.516655E-01
     0.024     0.118   0.503308E-01
     0.024     0.126   0.490281E-01
     0.024     0.134   0.477561E-01
     0.024     0.142   0.465146E-01
     0.024     0.150   0.453025E-01
     0.024     0.157   0.441194E-01
     0.024     0.165   0.429643E-01
     0.024     0.173   0.418371E-01
     0.024     0.181   0.407365E-01
     0.024     0.189   0.396624E-01
     0.024     0.197   0.386138E-01
     0.024     0.205   0.375906E-01
     0.024     0.213   0.365915E-01
     0.024     0.220   0.356168E-01
     0.024     0.228   0.346651E-01
     0.024     0.236   0.337367E-01
     0.024     0.244   0.328302E-01
     0.024     0.252   0.319460E-01
     0.024     0.260   0.310827E-01
     0.024     0.268   0.302407E-01
     0.024     0.276   0.294186E-01
     0.024     0.283   0.286168E-01
     0.024     0.291   0.278341E-01
     0.024     0.299   0.270708E-01
     0.024     0.307   0.263256E-01
     0.024     0.315   0.255991E-01
     0.024     0.323   0.248898E-01
     0.024     0.331   0.241983E-01
     0.024     0.339   0.235233E-01
     0.024     0.346   0.228653E-01
     0.024     0.354   0.222230E-01
     0.024     0.362   0.215970E-01
     0.024     0.370   0.209860E-01
     0.024     0.378   0.203905E-01
     0.024     0.386   0.198093E-01
     0.024     0.394   0.192430E-01
     0.024     0.402   0.186902E-01
     0.024     0.409   0.181517E-01
     0.024     0.417   0.176261E-01
     0.024     0.425   0.171142E-01
     0.024     0.433   0.166145E-01
     0.024     0.441   0.161279E-01
     0.024     0.449   0.156530E-01
     0.024     0.457   0.151906E-01
     0.024     0.465   0.147393E-01
     0.024     0.472   0.142999E-01
     0.024     0.480   0.138711E-01
     0.024     0.488   0.134537E-01
     0.024     0.496   0.130464E-01
     0.024     0.504   0.126499E-01
     0.024     0.512   0.122630E-01
     0.024     0.520   0.118865E-01
     0.024     0.528   0.115191E-01
     0.024     0.535   0.111616E-01
     0.024     0.543   0.108127E-01
     0.024     0.551   0.104732E-01
     0.024     0.559   0.101420E-01
     0.024     0.567   0.981971E-02
     0.024     0.575   0.950521E-02
     0.024     0.583   0.919928E-02
     0.024     0.591   0.890070E-02
     0.024     0.598   0.861027E-02
     0.024     0.606   0.832680E-02
     0.024     0.614   0.805107E-02
     0.024     0.622   0.778193E-02
     0.024     0.630   0.752013E-02
     0.024     0.638   0.726455E-02
     0.024     0.646   0.701595E-02
     0.024     0.654   0.677320E-02
     0.024     0.661   0.653705E-02
     0.024     0.669   0.630642E-02
     0.024     0.677   0.608204E-02
     0.024     0.685   0.586284E-02
     0.024     0.693   0.564953E-02
     0.024     0.701   0.544109E-02
     0.024     0.709   0.523820E-02
     0.024     0.717   0.503987E-02
     0.024     0.724   0.484675E-02
     0.024     0.732   0.465789E-02
     0.024     0.740   0.447392E-02
     0.024     0.748   0.429392E-02
     0.024     0.756   0.411848E-02
     0.024     0.764   0.394673E-02
     0.024     0.772   0.377923E-02
     0.024     0.780   0.361515E-02
     0.024     0.787   0.345500E-02
     0.024     0.795   0.329801E-02
     0.024     0.803   0.314465E-02
     0.024     0.811   0.299419E-02
     0.024     0.819   0.284705E-02
     0.024     0.827   0.270257E-02
     0.024     0.835   0.256112E-02
     0.024     0.843   0.242206E-02
     0.024     0.850   0.228575E-02
     0.024     0.858   0.215160E-02
     0.024     0.866   0.201991E-02
     0.024     0.874   0.189013E-02
     0.024     0.882   0.176253E-02
     0.024     0.890   0.163661E-02
     0.024     0.898   0.151260E-02
     0.024     0.906   0.139003E-02
     0.024     0.913   0.126908E-02
     0.024     0.921   0.114936E-02
     0.024     0.929   0.103099E-02
     0.024     0.937   0.913611E-03
     0.024     0.945   0.797311E-03
     0.024     0.953   0.681784E-03
     0.024     0.961   0.567064E-03
     0.024     0.969   0.452894E-03
     0.024     0.976   0.339261E-03
     0.024     0.984   0.225959E-03
     0.024     0.992   0.112924E-03
     0.024     1.000    0.00000    
     0.031     0.000   0.987864E-01
     0.031     0.008   0.962978E-01
     0.031     0.016   0.938681E-01
     0.031     0.024   0.914961E-01
     0.031     0.031   0.891802E-01
     0.031     0.039   0.869194E-01
     0.031     0.047   0.847120E-01
     0.031     0.055   0.825571E-01
     0.031     0.063   0.804532E-01
     0.031     0.071   0.783994E-01
     0.031     0.079   0.763941E-01
     0.031     0.087   0.744366E-01
     0.031     0.094   0.725253E-01
     0.031     0.102   0.706596E-01
     0.031     0.110   0.688380E-01
     0.031     0.118   0.670600E-01
     0.031     0.126   0.653240E-01
     0.031     0.134   0.636295E-01
     0.031     0.142   0.619750E-01
     0.031     0.150   0.603603E-01
     0.031     0.157   0.587837E-01
     0.031     0.165   0.572451E-01
     0.031     0.173   0.557428E-01
     0.031     0.181   0.542767E-01
     0.031     0.189   0.528453E-01
     0.031     0.197   0.514485E-01
     0.031     0.205   0.500848E-01
     0.031     0.213   0.487541E-01
     0.031     0.220   0.474549E-01
     0.031     0.228   0.461874E-01
     0.031     0.236   0.449499E-01
     0.031     0.244   0.437427E-01
     0.031     0.252   0.425640E-01
     0.031     0.260   0.414143E-01
     0.031     0.268   0.402918E-01
     0.031     0.276   0.391970E-01
     0.031     0.283   0.381282E-01
     0.031     0.291   0.370859E-01
     0.031     0.299   0.360683E-01
     0.031     0.307   0.350761E-01
     0.031     0.315   0.341074E-01
     0.031     0.323   0.331630E-01
     0.031     0.331   0.322411E-01
     0.031     0.339   0.313423E-01
     0.031     0.346   0.304650E-01
     0.031     0.354   0.296099E-01
     0.031     0.362   0.287751E-01
     0.031     0.370   0.279617E-01
     0.031     0.378   0.271676E-01
     0.031     0.386   0.263938E-01
     0.031     0.394   0.256386E-01
     0.031     0.402   0.249028E-01
     0.031     0.409   0.241846E-01
     0.031     0.417   0.234851E-01
     0.031     0.425   0.228022E-01
     0.031     0.433   0.221372E-01
     0.031     0.441   0.214882E-01
     0.031     0.449   0.208561E-01
     0.031     0.457   0.202393E-01
     0.031     0.465   0.196387E-01
     0.031     0.472   0.190526E-01
     0.031     0.480   0.184820E-01
     0.031     0.488   0.179251E-01
     0.031     0.496   0.173831E-01
     0.031     0.504   0.168541E-01
     0.031     0.512   0.163394E-01
     0.031     0.520   0.158370E-01
     0.031     0.528   0.153482E-01
     0.031     0.535   0.148711E-01
     0.031     0.543   0.144070E-01
     0.031     0.551   0.139540E-01
     0.031     0.559   0.135133E-01
     0.031     0.567   0.130833E-01
     0.031     0.575   0.126649E-01
     0.031     0.583   0.122566E-01
     0.031     0.591   0.118595E-01
     0.031     0.598   0.114718E-01
     0.031     0.606   0.110948E-01
     0.031     0.614   0.107268E-01
     0.031     0.622   0.103688E-01
     0.031     0.630   0.100194E-01
     0.031     0.638   0.967947E-02
     0.031     0.646   0.934761E-02
     0.031     0.654   0.902479E-02
     0.031     0.661   0.870955E-02
     0.031     0.669   0.840286E-02
     0.031     0.677   0.810330E-02
     0.031     0.685   0.781182E-02
     0.031     0.693   0.752705E-02
     0.031     0.701   0.724989E-02
     0.031     0.709   0.697901E-02
     0.031     0.717   0.671529E-02
     0.031     0.724   0.645746E-02
     0.031     0.732   0.620634E-02
     0.031     0.740   0.596072E-02
     0.031     0.748   0.572138E-02
     0.031     0.756   0.548715E-02
     0.031     0.764   0.525878E-02
     0.031     0.772   0.503515E-02
     0.031     0.780   0.481697E-02
     0.031     0.787   0.460317E-02
     0.031     0.795   0.439441E-02
     0.031     0.803   0.418968E-02
     0.031     0.811   0.398959E-02
     0.031     0.819   0.379319E-02
     0.031     0.827   0.360102E-02
     0.031     0.835   0.341222E-02
     0.031     0.843   0.322727E-02
     0.031     0.850   0.304535E-02
     0.031     0.858   0.286689E-02
     0.031     0.866   0.269115E-02
     0.031     0.874   0.251850E-02
     0.031     0.882   0.234825E-02
     0.031     0.890   0.218070E-02
     0.031     0.898   0.201525E-02
     0.031     0.906   0.185214E-02
     0.031     0.913   0.169082E-02
     0.031     0.921   0.153147E-02
     0.031     0.929   0.137360E-02
     0.031     0.937   0.121734E-02
     0.031     0.945   0.106227E-02
     0.031     0.953   0.908445E-03
     0.031     0.961   0.755505E-03
     0.031     0.969   0.603460E-03
     0.031     0.976   0.452001E-03
     0.031     0.984   0.301079E-03
     0.031     0.992   0.150450E-03
     0.031     1.000    0.00000    
     0.039     0.000   0.123370    
     0.039     0.008   0.120262    
     0.039     0.016   0.117227    
     0.039     0.024   0.114265    
     0.039     0.031   0.111373    
     0.039     0.039   0.108549    
     0.039     0.047   0.105793    
     0.039     0.055   0.103102    
     0.039     0.063   0.100474    
     0.039     0.071   0.979091E-01
     0.039     0.079   0.954050E-01
     0.039     0.087   0.929601E-01
     0.039     0.094   0.905735E-01
     0.039     0.102   0.882433E-01
     0.039     0.110   0.859687E-01
     0.039     0.118   0.837479E-01
     0.039     0.126   0.815802E-01
     0.039     0.134   0.794636E-01
     0.039     0.142   0.773979E-01
     0.039     0.150   0.753809E-01
     0.039     0.157   0.734124E-01
     0.039     0.165   0.714904E-01
     0.039     0.173   0.696147E-01
     0.039     0.181   0.677833E-01
     0.039     0.189   0.659962E-01
     0.039     0.197   0.642513E-01
     0.039     0.205   0.625488E-01
     0.039     0.213   0.608864E-01
     0.039     0.220   0.592645E-01
     0.039     0.228   0.576810E-01
     0.039     0.236   0.561361E-01
     0.039     0.244   0.546278E-01
     0.039     0.252   0.531565E-01
     0.039     0.260   0.517200E-01
     0.039     0.268   0.503189E-01
     0.039     0.276   0.489510E-01
     0.039     0.283   0.476169E-01
     0.039     0.291   0.463144E-01
     0.039     0.299   0.450444E-01
     0.039     0.307   0.438045E-01
     0.039     0.315   0.425955E-01
     0.039     0.323   0.414153E-01
     0.039     0.331   0.402647E-01
     0.039     0.339   0.391416E-01
     0.039     0.346   0.380467E-01
     0.039     0.354   0.369780E-01
     0.039     0.362   0.359363E-01
     0.039     0.370   0.349196E-01
     0.039     0.378   0.339287E-01
     0.039     0.386   0.329616E-01
     0.039     0.394   0.320193E-01
     0.039     0.402   0.310995E-01
     0.039     0.409   0.302035E-01
     0.039     0.417   0.293289E-01
     0.039     0.425   0.284771E-01
     0.039     0.433   0.276457E-01
     0.039     0.441   0.268360E-01
     0.039     0.449   0.260458E-01
     0.039     0.457   0.252763E-01
     0.039     0.465   0.245254E-01
     0.039     0.472   0.237943E-01
     0.039     0.480   0.230808E-01
     0.039     0.488   0.223863E-01
     0.039     0.496   0.217085E-01
     0.039     0.504   0.210488E-01
     0.039     0.512   0.204050E-01
     0.039     0.520   0.197785E-01
     0.039     0.528   0.191671E-01
     0.039     0.535   0.185723E-01
     0.039     0.543   0.179917E-01
     0.039     0.551   0.174269E-01
     0.039     0.559   0.168757E-01
     0.039     0.567   0.163395E-01
     0.039     0.575   0.158162E-01
     0.039     0.583   0.153071E-01
     0.039     0.591   0.148103E-01
     0.039     0.598   0.143270E-01
     0.039     0.606   0.138554E-01
     0.039     0.614   0.133966E-01
     0.039     0.622   0.129487E-01
     0.039     0.630   0.125131E-01
     0.039     0.638   0.120878E-01
     0.039     0.646   0.116742E-01
     0.039     0.654   0.112702E-01
     0.039     0.661   0.108773E-01
     0.039     0.669   0.104936E-01
     0.039     0.677   0.101202E-01
     0.039     0.685   0.975546E-02
     0.039     0.693   0.940052E-02
     0.039     0.701   0.905369E-02
     0.039     0.709   0.871609E-02
     0.039     0.717   0.838608E-02
     0.039     0.724   0.806473E-02
     0.039     0.732   0.775049E-02
     0.039     0.740   0.744436E-02
     0.039     0.748   0.714486E-02
     0.039     0.756   0.685293E-02
     0.039     0.764   0.656716E-02
     0.039     0.772   0.628844E-02
     0.039     0.780   0.601542E-02
     0.039     0.787   0.574894E-02
     0.039     0.795   0.548772E-02
     0.039     0.803   0.523253E-02
     0.039     0.811   0.498217E-02
     0.039     0.819   0.473735E-02
     0.039     0.827   0.449693E-02
     0.039     0.835   0.426156E-02
     0.039     0.843   0.403018E-02
     0.039     0.850   0.380337E-02
     0.039     0.858   0.358015E-02
     0.039     0.866   0.336102E-02
     0.039     0.874   0.314508E-02
     0.039     0.882   0.293276E-02
     0.039     0.890   0.272324E-02
     0.039     0.898   0.251688E-02
     0.039     0.906   0.231293E-02
     0.039     0.913   0.211169E-02
     0.039     0.921   0.191248E-02
     0.039     0.929   0.171551E-02
     0.039     0.937   0.152020E-02
     0.039     0.945   0.132668E-02
     0.039     0.953   0.113445E-02
     0.039     0.961   0.943564E-03
     0.039     0.969   0.753592E-03
     0.039     0.976   0.564513E-03
     0.039     0.984   0.375983E-03
     0.039     0.992   0.187900E-03
     0.039     1.000    0.00000    
     0.047     0.000   0.147877    
     0.047     0.008   0.144152    
     0.047     0.016   0.140515    
     0.047     0.024   0.136964    
     0.047     0.031   0.133497    
     0.047     0.039   0.130113    
     0.047     0.047   0.126809    
     0.047     0.055   0.123583    
     0.047     0.063   0.120434    
     0.047     0.071   0.117359    
     0.047     0.079   0.114357    
     0.047     0.087   0.111427    
     0.047     0.094   0.108566    
     0.047     0.102   0.105773    
     0.047     0.110   0.103046    
     0.047     0.118   0.100385    
     0.047     0.126   0.977861E-01
     0.047     0.134   0.952496E-01
     0.047     0.142   0.927729E-01
     0.047     0.150   0.903558E-01
     0.047     0.157   0.879957E-01
     0.047     0.165   0.856925E-01
     0.047     0.173   0.834436E-01
     0.047     0.181   0.812490E-01
     0.047     0.189   0.791062E-01
     0.047     0.197   0.770154E-01
     0.047     0.205   0.749739E-01
     0.047     0.213   0.729820E-01
     0.047     0.220   0.710372E-01
     0.047     0.228   0.691398E-01
     0.047     0.236   0.672873E-01
     0.047     0.244   0.654802E-01
     0.047     0.252   0.637158E-01
     0.047     0.260   0.619947E-01
     0.047     0.268   0.603144E-01
     0.047     0.276   0.586756E-01
     0.047     0.283   0.570757E-01
     0.047     0.291   0.555154E-01
     0.047     0.299   0.539921E-01
     0.047     0.307   0.525068E-01
     0.047     0.315   0.510568E-01
     0.047     0.323   0.496431E-01
     0.047     0.331   0.482630E-01
     0.047     0.339   0.469176E-01
     0.047     0.346   0.456043E-01
     0.047     0.354   0.443242E-01
     0.047     0.362   0.430747E-01
     0.047     0.370   0.418569E-01
     0.047     0.378   0.406683E-01
     0.047     0.386   0.395100E-01
     0.047     0.394   0.383795E-01
     0.047     0.402   0.372780E-01
     0.047     0.409   0.362030E-01
     0.047     0.417   0.351557E-01
     0.047     0.425   0.341336E-01
     0.047     0.433   0.331381E-01
     0.047     0.441   0.321665E-01
     0.047     0.449   0.312204E-01
     0.047     0.457   0.302970E-01
     0.047     0.465   0.293980E-01
     0.047     0.472   0.285206E-01
     0.047     0.480   0.276664E-01
     0.047     0.488   0.268328E-01