Title="Temperature Data"
Variables="X","Y","T"
 
Zone I=   128, J=   128, F=POINT
     0.000     0.000    0.00000    
     0.000     0.008    0.00000    
     0.000     0.016    0.00000    
     0.000     0.024    0.00000    
     0.000     0.031    0.00000    
     0.000     0.039    0.00000    
     0.000     0.047    0.00000    
     0.000     0.055    0.00000    
     0.000     0.063    0.00000    
     0.000     0.071    0.00000    
     0.000     0.079    0.00000    
     0.000     0.087    0.00000    
     0.000     0.094    0.00000    
     0.000     0.102    0.00000    
     0.000     0.110    0.00000    
     0.000     0.118    0.00000    
     0.000     0.126    0.00000    
     0.000     0.134    0.00000    
     0.000     0.142    0.00000    
     0.000     0.150    0.00000    
     0.000     0.157    0.00000    
     0.000     0.165    0.00000    
     0.000     0.173    0.00000    
     0.000     0.181    0.00000    
     0.000     0.189    0.00000    
     0.000     0.197    0.00000    
     0.000     0.205    0.00000    
     0.000     0.213    0.00000    
     0.000     0.220    0.00000    
     0.000     0.228    0.00000    
     0.000     0.236    0.00000    
     0.000     0.244    0.00000    
     0.000     0.252    0.00000    
     0.000     0.260    0.00000    
     0.000     0.268    0.00000    
     0.000     0.276    0.00000    
     0.000     0.283    0.00000    
     0.000     0.291    0.00000    
     0.000     0.299    0.00000    
     0.000     0.307    0.00000    
     0.000     0.315    0.00000    
     0.000     0.323    0.00000    
     0.000     0.331    0.00000    
     0.000     0.339    0.00000    
     0.000     0.346    0.00000    
     0.000     0.354    0.00000    
     0.000     0.362    0.00000    
     0.000     0.370    0.00000    
     0.000     0.378    0.00000    
     0.000     0.386    0.00000    
     0.000     0.394    0.00000    
     0.000     0.402    0.00000    
     0.000     0.409    0.00000    
     0.000     0.417    0.00000    
     0.000     0.425    0.00000    
     0.000     0.433    0.00000    
     0.000     0.441    0.00000    
     0.000     0.449    0.00000    
     0.000     0.457    0.00000    
     0.000     0.465    0.00000    
     0.000     0.472    0.00000    
     0.000     0.480    0.00000    
     0.000     0.488    0.00000    
     0.000     0.496    0.00000    
     0.000     0.504    0.00000    
     0.000     0.512    0.00000    
     0.000     0.520    0.00000    
     0.000     0.528    0.00000    
     0.000     0.535    0.00000    
     0.000     0.543    0.00000    
     0.000     0.551    0.00000    
     0.000     0.559    0.00000    
     0.000     0.567    0.00000    
     0.000     0.575    0.00000    
     0.000     0.583    0.00000    
     0.000     0.591    0.00000    
     0.000     0.598    0.00000    
     0.000     0.606    0.00000    
     0.000     0.614    0.00000    
     0.000     0.622    0.00000    
     0.000     0.630    0.00000    
     0.000     0.638    0.00000    
     0.000     0.646    0.00000    
     0.000     0.654    0.00000    
     0.000     0.661    0.00000    
     0.000     0.669    0.00000    
     0.000     0.677    0.00000    
     0.000     0.685    0.00000    
     0.000     0.693    0.00000    
     0.000     0.701    0.00000    
     0.000     0.709    0.00000    
     0.000     0.717    0.00000    
     0.000     0.724    0.00000    
     0.000     0.732    0.00000    
     0.000     0.740    0.00000    
     0.000     0.748    0.00000    
     0.000     0.756    0.00000    
     0.000     0.764    0.00000    
     0.000     0.772    0.00000    
     0.000     0.780    0.00000    
     0.000     0.787    0.00000    
     0.000     0.795    0.00000    
     0.000     0.803    0.00000    
     0.000     0.811    0.00000    
     0.000     0.819    0.00000    
     0.000     0.827    0.00000    
     0.000     0.835    0.00000    
     0.000     0.843    0.00000    
     0.000     0.850    0.00000    
     0.000     0.858    0.00000    
     0.000     0.866    0.00000    
     0.000     0.874    0.00000    
     0.000     0.882    0.00000    
     0.000     0.890    0.00000    
     0.000     0.898    0.00000    
     0.000     0.906    0.00000    
     0.000     0.913    0.00000    
     0.000     0.921    0.00000    
     0.000     0.929    0.00000    
     0.000     0.937    0.00000    
     0.000     0.945    0.00000    
     0.000     0.953    0.00000    
     0.000     0.961    0.00000    
     0.000     0.969    0.00000    
     0.000     0.976    0.00000    
     0.000     0.984    0.00000    
     0.000     0.992    0.00000    
     0.000     1.000    0.00000    
     0.008     0.000   0.247344E-01
     0.008     0.008   0.239136E-01
     0.008     0.016   0.231081E-01
     0.008     0.024   0.223175E-01
     0.008     0.031   0.215426E-01
     0.008     0.039   0.207826E-01
     0.008     0.047   0.200385E-01
     0.008     0.055   0.193092E-01
     0.008     0.063   0.185963E-01
     0.008     0.071   0.178980E-01
     0.008     0.079   0.172163E-01
     0.008     0.087   0.165493E-01
     0.008     0.094   0.158992E-01
     0.008     0.102   0.152635E-01
     0.008     0.110   0.146450E-01
     0.008     0.118   0.140408E-01
     0.008     0.126   0.134541E-01
     0.008     0.134   0.128814E-01
     0.008     0.142   0.123263E-01
     0.008     0.150   0.117851E-01
     0.008     0.157   0.112614E-01
     0.008     0.165   0.107515E-01
     0.008     0.173   0.102591E-01
     0.008     0.181   0.978010E-02
     0.008     0.189   0.931857E-02
     0.008     0.197   0.887009E-02
     0.008     0.205   0.843888E-02
     0.008     0.213   0.802038E-02
     0.008     0.220   0.761887E-02
     0.008     0.228   0.722968E-02
     0.008     0.236   0.685711E-02
     0.008     0.244   0.649643E-02
     0.008     0.252   0.615194E-02
     0.008     0.260   0.581888E-02
     0.008     0.268   0.550150E-02
     0.008     0.276   0.519506E-02
     0.008     0.283   0.490372E-02
     0.008     0.291   0.462281E-02
     0.008     0.299   0.435637E-02
     0.008     0.307   0.409983E-02
     0.008     0.315   0.385709E-02
     0.008     0.323   0.362369E-02
     0.008     0.331   0.340338E-02
     0.008     0.339   0.319186E-02
     0.008     0.346   0.299268E-02
     0.008     0.354   0.280172E-02
     0.008     0.362   0.262236E-02
     0.008     0.370   0.245064E-02
     0.008     0.378   0.228976E-02
     0.008     0.386   0.213596E-02
     0.008     0.394   0.199222E-02
     0.008     0.402   0.185501E-02
     0.008     0.409   0.172711E-02
     0.008     0.417   0.160521E-02
     0.008     0.425   0.149185E-02
     0.008     0.433   0.138398E-02
     0.008     0.441   0.128392E-02
     0.008     0.449   0.118885E-02
     0.008     0.457   0.110090E-02
     0.008     0.465   0.101746E-02
     0.008     0.472   0.940467E-03
     0.008     0.480   0.867536E-03
     0.008     0.488   0.800409E-03
     0.008     0.496   0.736926E-03
     0.008     0.504   0.678646E-03
     0.008     0.512   0.623616E-03
     0.008     0.520   0.573228E-03
     0.008     0.528   0.525724E-03
     0.008     0.535   0.482341E-03
     0.008     0.543   0.441506E-03
     0.008     0.551   0.404311E-03
     0.008     0.559   0.369356E-03
     0.008     0.567   0.337600E-03
     0.008     0.575   0.307804E-03
     0.008     0.583   0.280805E-03
     0.008     0.591   0.255514E-03
     0.008     0.598   0.232658E-03
     0.008     0.606   0.211281E-03
     0.008     0.614   0.192014E-03
     0.008     0.622   0.174022E-03
     0.008     0.630   0.157849E-03
     0.008     0.638   0.142771E-03
     0.008     0.646   0.129252E-03
     0.008     0.654   0.116670E-03
     0.008     0.661   0.105419E-03
     0.008     0.669   0.949633E-04
     0.008     0.677   0.856387E-04
     0.008     0.685   0.769881E-04
     0.008     0.693   0.692935E-04
     0.008     0.701   0.621666E-04
     0.008     0.709   0.558441E-04
     0.008     0.717   0.499976E-04
     0.008     0.724   0.448248E-04
     0.008     0.732   0.400492E-04
     0.008     0.740   0.358350E-04
     0.008     0.748   0.319508E-04
     0.008     0.756   0.285323E-04
     0.008     0.764   0.253866E-04
     0.008     0.772   0.226253E-04
     0.008     0.780   0.200884E-04
     0.008     0.787   0.178673E-04
     0.008     0.795   0.158300E-04
     0.008     0.803   0.140510E-04
     0.008     0.811   0.124216E-04
     0.008     0.819   0.110023E-04
     0.008     0.827   0.970444E-05
     0.008     0.835   0.857653E-05
     0.008     0.843   0.754652E-05
     0.008     0.850   0.665331E-05
     0.008     0.858   0.583860E-05
     0.008     0.866   0.513331E-05
     0.008     0.874   0.449056E-05
     0.008     0.882   0.393470E-05
     0.008     0.890   0.342826E-05
     0.008     0.898   0.299022E-05
     0.008     0.906   0.259083E-05
     0.008     0.913   0.224463E-05
     0.008     0.921   0.192823E-05
     0.008     0.929   0.165246E-05
     0.008     0.937   0.139915E-05
     0.008     0.945   0.117601E-05
     0.008     0.953   0.969183E-06
     0.008     0.961   0.783645E-06
     0.008     0.969   0.609164E-06
     0.008     0.976   0.448252E-06
     0.008     0.984   0.293737E-06
     0.008     0.992   0.145822E-06
     0.008     1.000    0.00000    
     0.016     0.000   0.494537E-01
     0.016     0.008   0.478127E-01
     0.016     0.016   0.462017E-01
     0.016     0.024   0.446217E-01
     0.016     0.031   0.430715E-01
     0.016     0.039   0.415530E-01
     0.016     0.047   0.400640E-01
     0.016     0.055   0.386074E-01
     0.016     0.063   0.371802E-01
     0.016     0.071   0.357860E-01
     0.016     0.079   0.344210E-01
     0.016     0.087   0.330897E-01
     0.016     0.094   0.317872E-01
     0.016     0.102   0.305190E-01
     0.016     0.110   0.292795E-01
     0.016     0.118   0.280747E-01
     0.016     0.126   0.268982E-01
     0.016     0.134   0.257567E-01
     0.016     0.142   0.246432E-01
     0.016     0.150   0.235648E-01
     0.016     0.157   0.225140E-01
     0.016     0.165   0.214984E-01
     0.016     0.173   0.205099E-01
     0.016     0.181   0.195563E-01
     0.016     0.189   0.186293E-01
     0.016     0.197   0.177369E-01
     0.016     0.205   0.168704E-01
     0.016     0.213   0.160381E-01
     0.016     0.220   0.152308E-01
     0.016     0.228   0.144572E-01
     0.016     0.236   0.137078E-01
     0.016     0.244   0.129912E-01
     0.016     0.252   0.122979E-01
     0.016     0.260   0.116364E-01
     0.016     0.268   0.109974E-01
     0.016     0.276   0.103891E-01
     0.016     0.283   0.980225E-02
     0.016     0.291   0.924494E-02
     0.016     0.299   0.870795E-02
     0.016     0.307   0.819924E-02
     0.016     0.315   0.770976E-02
     0.016     0.323   0.724718E-02
     0.016     0.331   0.680271E-02
     0.016     0.339   0.638369E-02
     0.016     0.346   0.598165E-02
     0.016     0.354   0.560356E-02
     0.016     0.362   0.524133E-02
     0.016     0.370   0.490152E-02
     0.016     0.378   0.457644E-02
     0.016     0.386   0.427223E-02
     0.016     0.394   0.398165E-02
     0.016     0.402   0.371041E-02
     0.016     0.409   0.345170E-02
     0.016     0.417   0.321083E-02
     0.016     0.425   0.298144E-02
     0.016     0.433   0.276840E-02
     0.016     0.441   0.256582E-02
     0.016     0.449   0.237816E-02
     0.016     0.457   0.220000E-02
     0.016     0.465   0.203538E-02
     0.016     0.472   0.187933E-02
     0.016     0.480   0.173552E-02
     0.016     0.488   0.159940E-02
     0.016     0.496   0.147428E-02
     0.016     0.504   0.135604E-02
     0.016     0.512   0.124764E-02
     0.016     0.520   0.114536E-02
     0.016     0.528   0.105183E-02
     0.016     0.535   0.963725E-03
     0.016     0.543   0.883366E-03
     0.016     0.551   0.807788E-03
     0.016     0.559   0.739036E-03
     0.016     0.567   0.674477E-03
     0.016     0.575   0.615902E-03
     0.016     0.583   0.560987E-03
     0.016     0.591   0.511294E-03
     0.016     0.598   0.464780E-03
     0.016     0.606   0.422800E-03
     0.016     0.614   0.383569E-03
     0.016     0.622   0.348255E-03
     0.016     0.630   0.315307E-03
     0.016     0.638   0.285727E-03
     0.016     0.646   0.258173E-03
     0.016     0.654   0.233502E-03
     0.016     0.661   0.210557E-03
     0.016     0.669   0.190067E-03
     0.016     0.677   0.171042E-03
     0.016     0.685   0.154097E-03
     0.016     0.693   0.138390E-03
     0.016     0.701   0.124437E-03
     0.016     0.709   0.111524E-03
     0.016     0.717   0.100084E-03
     0.016     0.724   0.895133E-04
     0.016     0.732   0.801732E-04
     0.016     0.740   0.715575E-04
     0.016     0.748   0.639647E-04
     0.016     0.756   0.569720E-04
     0.016     0.764   0.508259E-04
     0.016     0.772   0.451747E-04
     0.016     0.780   0.402206E-04
     0.016     0.787   0.356729E-04
     0.016     0.795   0.316964E-04
     0.016     0.803   0.280518E-04
     0.016     0.811   0.248731E-04
     0.016     0.819   0.219642E-04
     0.016     0.827   0.194333E-04
     0.016     0.835   0.171205E-04
     0.016     0.843   0.151129E-04
     0.016     0.850   0.132806E-04
     0.016     0.858   0.116932E-04
     0.016     0.866   0.102460E-04
     0.016     0.874   0.899394E-05
     0.016     0.882   0.785315E-05
     0.016     0.890   0.686669E-05
     0.016     0.898   0.596776E-05
     0.016     0.906   0.518963E-05
     0.016     0.913   0.447952E-05
     0.016     0.921   0.386258E-05
     0.016     0.929   0.329758E-05
     0.016     0.937   0.280287E-05
     0.016     0.945   0.234670E-05
     0.016     0.953   0.194160E-05
     0.016     0.961   0.156370E-05
     0.016     0.969   0.122040E-05
     0.016     0.976   0.894427E-06
     0.016     0.984   0.588481E-06
     0.016     0.992   0.290964E-06
     0.016     1.000    0.00000    
     0.024     0.000   0.741428E-01
     0.024     0.008   0.716823E-01
     0.024     0.016   0.692676E-01
     0.024     0.024   0.668979E-01
     0.024     0.031   0.645751E-01
     0.024     0.039   0.622968E-01
     0.024     0.047   0.600665E-01
     0.024     0.055   0.578804E-01
     0.024     0.063   0.557433E-01
     0.024     0.071   0.536501E-01
     0.024     0.079   0.516069E-01
     0.024     0.087   0.496073E-01
     0.024     0.094   0.476586E-01
     0.024     0.102   0.457530E-01
     0.024     0.110   0.438992E-01
     0.024     0.118   0.420881E-01
     0.024     0.126   0.403293E-01
     0.024     0.134   0.386126E-01
     0.024     0.142   0.369487E-01
     0.024     0.150   0.353263E-01
     0.024     0.157   0.337568E-01
     0.024     0.165   0.322281E-01
     0.024     0.173   0.307522E-01
     0.024     0.181   0.293164E-01
     0.024     0.189   0.279329E-01
     0.024     0.197   0.265886E-01
     0.024     0.205   0.252960E-01
     0.024     0.213   0.240415E-01
     0.024     0.220   0.228380E-01
     0.024     0.228   0.216713E-01
     0.024     0.236   0.205546E-01
     0.024     0.244   0.194734E-01
     0.024     0.252   0.184408E-01
     0.024     0.260   0.174424E-01
     0.024     0.268   0.164910E-01
     0.024     0.276   0.155725E-01
     0.024     0.283   0.146992E-01
     0.024     0.291   0.138571E-01
     0.024     0.299   0.130585E-01
     0.024     0.307   0.122895E-01
     0.024     0.315   0.115618E-01
     0.024     0.323   0.108622E-01
     0.024     0.331   0.102018E-01
     0.024     0.339   0.956776E-02
     0.024     0.346   0.897072E-02
     0.024     0.354   0.839831E-02
     0.024     0.362   0.786066E-02
     0.024     0.370   0.734594E-02
     0.024     0.378   0.686366E-02
     0.024     0.386   0.640265E-02
     0.024     0.394   0.597177E-02
     0.024     0.402   0.556051E-02
     0.024     0.409   0.517710E-02
     0.024     0.417   0.481169E-02
     0.024     0.425   0.447189E-02
     0.024     0.433   0.414854E-02
     0.024     0.441   0.384862E-02
     0.024     0.449   0.356365E-02
     0.024     0.457   0.330001E-02
     0.024     0.465   0.304990E-02
     0.024     0.472   0.281910E-02
     0.024     0.480   0.260048E-02
     0.024     0.488   0.239927E-02
     0.024     0.496   0.220897E-02
     0.024     0.504   0.203428E-02
     0.024     0.512   0.186932E-02
     0.024     0.520   0.171828E-02
     0.024     0.528   0.157589E-02
     0.024     0.535   0.144584E-02
     0.024     0.543   0.132344E-02
     0.024     0.551   0.121194E-02
     0.024     0.559   0.110716E-02
     0.024     0.567   0.101197E-02
     0.024     0.575   0.922658E-03
     0.024     0.583   0.841729E-03
     0.024     0.591   0.765917E-03
     0.024     0.598   0.697405E-03
     0.024     0.606   0.633327E-03
     0.024     0.614   0.575572E-03
     0.024     0.622   0.521642E-03
     0.024     0.630   0.473160E-03
     0.024     0.638   0.427964E-03
     0.024     0.646   0.387441E-03
     0.024     0.654   0.349724E-03
     0.024     0.661   0.315998E-03
     0.024     0.669   0.284657E-03
     0.024     0.677   0.256707E-03
     0.024     0.685   0.230776E-03
     0.024     0.693   0.207711E-03
     0.024     0.701   0.186348E-03
     0.024     0.709   0.167396E-03
     0.024     0.717   0.149871E-03
     0.024     0.724   0.134365E-03
     0.024     0.732   0.120050E-03
     0.024     0.740   0.107417E-03
     0.024     0.748   0.957742E-04
     0.024     0.756   0.855271E-04
     0.024     0.764   0.760976E-04
     0.024     0.772   0.678204E-04
     0.024     0.780   0.602160E-04
     0.024     0.787   0.535583E-04
     0.024     0.795   0.474514E-04
     0.024     0.803   0.421185E-04
     0.024     0.811   0.372345E-04
     0.024     0.819   0.329801E-04
     0.024     0.827   0.290896E-04
     0.024     0.835   0.257086E-04
     0.024     0.843   0.226211E-04
     0.024     0.850   0.199436E-04
     0.024     0.858   0.175015E-04
     0.024     0.866   0.153874E-04
     0.024     0.874   0.134607E-04
     0.024     0.882   0.117945E-04
     0.024     0.890   0.102764E-04
     0.024     0.898   0.896333E-05
     0.024     0.906   0.776616E-05
     0.024     0.913   0.672840E-05
     0.024     0.921   0.577998E-05
     0.024     0.929   0.495332E-05
     0.024     0.937   0.419404E-05
     0.024     0.945   0.352514E-05
     0.024     0.953   0.290518E-05
     0.024     0.961   0.234902E-05
     0.024     0.969   0.182600E-05
     0.024     0.976   0.134366E-05
     0.024     0.984   0.880491E-06
     0.024     0.992   0.437108E-06
     0.024     1.000    0.00000    
     0.031     0.000   0.987864E-01
     0.031     0.008   0.955084E-01
     0.031     0.016   0.922904E-01
     0.031     0.024   0.891343E-01
     0.031     0.031   0.860377E-01
     0.031     0.039   0.830043E-01
     0.031     0.047   0.800300E-01
     0.031     0.055   0.771204E-01
     0.031     0.063   0.742694E-01
     0.031     0.071   0.714845E-01
     0.031     0.079   0.687577E-01
     0.031     0.087   0.660983E-01
     0.031     0.094   0.634967E-01
     0.031     0.102   0.609634E-01
     0.031     0.110   0.584874E-01
     0.031     0.118   0.560806E-01
     0.031     0.126   0.537305E-01
     0.031     0.134   0.514503E-01
     0.031     0.142   0.492260E-01
     0.031     0.150   0.470720E-01
     0.031     0.157   0.449729E-01
     0.031     0.165   0.429442E-01
     0.031     0.173   0.409695E-01
     0.031     0.181   0.390648E-01
     0.031     0.189   0.372129E-01
     0.031     0.197   0.354305E-01
     0.031     0.205   0.336995E-01
     0.031     0.213   0.320369E-01
     0.031     0.220   0.304244E-01
     0.031     0.228   0.288790E-01
     0.031     0.236   0.273820E-01
     0.031     0.244   0.259505E-01
     0.031     0.252   0.245656E-01
     0.031     0.260   0.232444E-01
     0.031     0.268   0.219679E-01
     0.031     0.276   0.207529E-01
     0.031     0.283   0.195805E-01
     0.031     0.291   0.184673E-01
     0.031     0.299   0.173946E-01
     0.031     0.307   0.163784E-01
     0.031     0.315   0.154007E-01
     0.031     0.323   0.144766E-01
     0.031     0.331   0.135888E-01
     0.031     0.339   0.127517E-01
     0.031     0.346   0.119487E-01
     0.031     0.354   0.111934E-01
     0.031     0.362   0.104698E-01
     0.031     0.370   0.979104E-02
     0.031     0.378   0.914167E-02
     0.031     0.386   0.853400E-02
     0.031     0.394   0.795355E-02
     0.031     0.402   0.741173E-02
     0.031     0.409   0.689496E-02
     0.031     0.417   0.641380E-02
     0.031     0.425   0.595558E-02
     0.031     0.433   0.553002E-02
     0.031     0.441   0.512536E-02
     0.031     0.449   0.475051E-02
     0.031     0.457   0.439462E-02
     0.031     0.465   0.406578E-02
     0.031     0.472   0.375407E-02
     0.031     0.480   0.346679E-02
     0.031     0.488   0.319489E-02
     0.031     0.496   0.294495E-02
     0.031     0.504   0.270877E-02
     0.031     0.512   0.249223E-02
     0.031     0.520   0.228792E-02
     0.031     0.528   0.210109E-02
     0.031     0.535   0.192509E-02
     0.031     0.543   0.176457E-02
     0.031     0.551   0.161360E-02
     0.031     0.559   0.147626E-02
     0.031     0.567   0.134730E-02
     0.031     0.575   0.123030E-02
     0.031     0.583   0.112060E-02
     0.031     0.591   0.102134E-02
     0.031     0.598   0.928423E-03
     0.031     0.606   0.844566E-03
     0.031     0.614   0.766200E-03
     0.031     0.622   0.695658E-03
     0.031     0.630   0.629843E-03
     0.031     0.638   0.570755E-03
     0.031     0.646   0.515715E-03
     0.031     0.654   0.466432E-03
     0.031     0.661   0.420599E-03
     0.031     0.669   0.379669E-03
     0.031     0.677   0.341666E-03
     0.031     0.685   0.307818E-03
     0.031     0.693   0.276441E-03
     0.031     0.701   0.248570E-03
     0.031     0.709   0.222775E-03
     0.031     0.717   0.199922E-03
     0.031     0.724   0.178808E-03
     0.031     0.732   0.160150E-03
     0.031     0.740   0.142940E-03
     0.031     0.748   0.127773E-03
     0.031     0.756   0.113805E-03
     0.031     0.764   0.101527E-03
     0.031     0.772   0.902388E-04
     0.031     0.780   0.803429E-04
     0.031     0.787   0.712584E-04
     0.031     0.795   0.633152E-04
     0.031     0.803   0.560350E-04
     0.031     0.811   0.496854E-04
     0.031     0.819   0.438746E-04
     0.031     0.827   0.388191E-04
     0.031     0.835   0.341992E-04
     0.031     0.843   0.301888E-04
     0.031     0.850   0.265288E-04
     0.031     0.858   0.233578E-04
     0.031     0.866   0.204669E-04
     0.031     0.874   0.179659E-04
     0.031     0.882   0.156871E-04
     0.031     0.890   0.137166E-04
     0.031     0.898   0.119209E-04
     0.031     0.906   0.103666E-04
     0.031     0.913   0.894807E-05
     0.031     0.921   0.771571E-05
     0.031     0.929   0.658709E-05
     0.031     0.937   0.559889E-05
     0.031     0.945   0.468765E-05
     0.031     0.953   0.387845E-05
     0.031     0.961   0.312357E-05
     0.031     0.969   0.243781E-05
     0.031     0.976   0.178667E-05
     0.031     0.984   0.117552E-05
     0.031     0.992   0.581217E-06
     0.031     1.000    0.00000    
     0.039     0.000   0.123370    
     0.039     0.008   0.119276    
     0.039     0.016   0.115258    
     0.039     0.024   0.111315    
     0.039     0.031   0.107450    
     0.039     0.039   0.103659    
     0.039     0.047   0.999475E-01
     0.039     0.055   0.963099E-01
     0.039     0.063   0.927539E-01
     0.039     0.071   0.892709E-01
     0.039     0.079   0.858712E-01
     0.039     0.087   0.825439E-01
     0.039     0.094   0.793014E-01
     0.039     0.102   0.761306E-01
     0.039     0.110   0.730460E-01
     0.039     0.118   0.700323E-01
     0.039     0.126   0.671058E-01
     0.039     0.134   0.642494E-01
     0.039     0.142   0.614807E-01
     0.039     0.150   0.587811E-01
     0.039     0.157   0.561695E-01
     0.039     0.165   0.536259E-01
     0.039     0.173   0.511701E-01
     0.039     0.181   0.487809E-01
     0.039     0.189   0.464789E-01
     0.039     0.197   0.442420E-01
     0.039     0.205   0.420912E-01
     0.039     0.213   0.400038E-01
     0.039     0.220   0.380012E-01
     0.039     0.228   0.360600E-01
     0.039     0.236   0.342017E-01
     0.039     0.244   0.324027E-01
     0.039     0.252   0.306845E-01
     0.039     0.260   0.290232E-01
     0.039     0.268   0.274402E-01
     0.039     0.276   0.259117E-01
     0.039     0.283   0.244586E-01
     0.039     0.291   0.230575E-01
     0.039     0.299   0.217286E-01
     0.039     0.307   0.204490E-01
     0.039     0.315   0.192383E-01
     0.039     0.323   0.180741E-01
     0.039     0.331   0.169753E-01
     0.039     0.339   0.159202E-01
     0.039     0.346   0.149268E-01
     0.039     0.354   0.139744E-01
     0.039     0.362   0.130797E-01
     0.039     0.370   0.122232E-01
     0.039     0.378   0.114208E-01
     0.039     0.386   0.106537E-01
     0.039     0.394   0.993671E-02
     0.039     0.402   0.925239E-02
     0.039     0.409   0.861442E-02
     0.039     0.417   0.800639E-02
     0.039     0.425   0.744099E-02
     0.039     0.433   0.690295E-02
     0.039     0.441   0.640390E-02
     0.039     0.449   0.592973E-02
     0.039     0.457   0.549105E-02
     0.039     0.465   0.507487E-02
     0.039     0.472   0.469083E-02
     0.039     0.480   0.432707E-02
     0.039     0.488   0.399226E-02
     0.039     0.496   0.367562E-02
     0.039     0.504   0.338493E-02
     0.039     0.512   0.311045E-02
     0.039     0.520   0.285913E-02
     0.039     0.528   0.262219E-02
     0.039     0.535   0.240581E-02
     0.039     0.543   0.220213E-02
     0.039     0.551   0.201661E-02
     0.039     0.559   0.184226E-02
     0.039     0.567   0.168387E-02
     0.039     0.575   0.153525E-02
     0.039     0.583   0.140059E-02
     0.039     0.591   0.127445E-02
     0.039     0.598   0.116044E-02
     0.039     0.606   0.105382E-02
     0.039     0.614   0.957721E-03
     0.039     0.622   0.867984E-03
     0.039     0.630   0.787314E-03
     0.039     0.638   0.712109E-03
     0.039     0.646   0.644681E-03
     0.039     0.654   0.581923E-03
     0.039     0.661   0.525803E-03
     0.039     0.669   0.473655E-03
     0.039     0.677   0.427146E-03
     0.039     0.685   0.383999E-03
     0.039     0.693   0.345620E-03
     0.039     0.701   0.310073E-03
     0.039     0.709   0.278538E-03
     0.039     0.717   0.249377E-03
     0.039     0.724   0.223576E-03
     0.039     0.732   0.199756E-03
     0.039     0.740   0.178737E-03
     0.039     0.748   0.159363E-03
     0.039     0.756   0.142313E-03
     0.039     0.764   0.126622E-03
     0.039     0.772   0.112850E-03
     0.039     0.780   0.100196E-03
     0.039     0.787   0.891181E-04
     0.039     0.795   0.789566E-04
     0.039     0.803   0.700830E-04
     0.039     0.811   0.619562E-04
     0.039     0.819   0.548771E-04
     0.039     0.827   0.484035E-04
     0.039     0.835   0.427778E-04
     0.039     0.843   0.376403E-04
     0.039     0.850   0.331852E-04
     0.039     0.858   0.291216E-04
     0.039     0.866   0.256038E-04
     0.039     0.874   0.223979E-04
     0.039     0.882   0.196254E-04
     0.039     0.890   0.170994E-04
     0.039     0.898   0.149145E-04
     0.039     0.906   0.129225E-04
     0.039     0.913   0.111957E-04
     0.039     0.921   0.961758E-05
     0.039     0.929   0.824207E-05
     0.039     0.937   0.697866E-05
     0.039     0.945   0.586564E-05
     0.039     0.953   0.483406E-05
     0.039     0.961   0.390864E-05
     0.039     0.969   0.303837E-05
     0.039     0.976   0.223578E-05
     0.039     0.984   0.146509E-05
     0.039     0.992   0.727325E-06
     0.039     1.000    0.00000    
     0.047     0.000   0.147877    
     0.047     0.008   0.142970    
     0.047     0.016   0.138153    
     0.047     0.024   0.133429    
     0.047     0.031   0.128793    
     0.047     0.039   0.124253    
     0.047     0.047   0.119800    
     0.047     0.055   0.115445    
     0.047     0.063   0.111177    
     0.047     0.071   0.107008    
     0.047     0.079   0.102926    
     0.047     0.087   0.989453E-01
     0.047     0.094   0.950507E-01
     0.047     0.102   0.912586E-01
     0.047     0.110   0.875521E-01
     0.047     0.118   0.839494E-01
     0.047     0.126   0.804314E-01
     0.047     0.134   0.770181E-01
     0.047     0.142   0.736884E-01
     0.047     0.150   0.704640E-01
     0.047     0.157   0.673218E-01
     0.047     0.165   0.642850E-01
     0.047     0.173   0.613289E-01
     0.047     0.181   0.584777E-01
     0.047     0.189   0.557056E-01
     0.047     0.197   0.530373E-01
     0.047     0.205   0.504461E-01
     0.047     0.213   0.479574E-01
     0.047     0.220   0.455435E-01
     0.047     0.228   0.432302E-01
     0.047     0.236   0.409892E-01
     0.047     0.244   0.388464E-01
     0.047     0.252   0.367733E-01
     0.047     0.260   0.347955E-01
     0.047     0.268   0.328846E-01
     0.047     0.276   0.310658E-01
     0.047     0.283   0.293109E-01
     0.047     0.291   0.276444E-01
     0.047     0.299   0.260387E-01
     0.047     0.307   0.245175E-01
     0.047     0.315   0.230539E-01
     0.047     0.323   0.216706E-01
     0.047     0.331   0.203416E-01
     0.047     0.339   0.190886E-01
     0.047     0.346   0.178864E-01
     0.047     0.354   0.167559E-01
     0.047     0.362   0.156727E-01
     0.047     0.370   0.146566E-01
     0.047     0.378   0.136845E-01
     0.047     0.386   0.127749E-01
     0.047     0.394   0.119060E-01
     0.047     0.402   0.110949E-01
     0.047     0.409   0.103213E-01
     0.047     0.417   0.960107E-02
     0.047     0.425   0.891514E-02
     0.047     0.433   0.827810E-02
     0.047     0.441   0.767236E-02
     0.047     0.449   0.711123E-02
     0.047     0.457   0.657848E-02
     0.047     0.465   0.608623E-02
     0.047     0.472   0.561961E-02
     0.047     0.480   0.518957E-02
     0.047     0.488   0.478256E-02