Title="Temperature Data"
Variables="X","Y","T"
 
Zone I=    64, J=    64, F=POINT
     0.000     0.000    0.00000    
     0.000     0.016    0.00000    
     0.000     0.032    0.00000    
     0.000     0.048    0.00000    
     0.000     0.063    0.00000    
     0.000     0.079    0.00000    
     0.000     0.095    0.00000    
     0.000     0.111    0.00000    
     0.000     0.127    0.00000    
     0.000     0.143    0.00000    
     0.000     0.159    0.00000    
     0.000     0.175    0.00000    
     0.000     0.190    0.00000    
     0.000     0.206    0.00000    
     0.000     0.222    0.00000    
     0.000     0.238    0.00000    
     0.000     0.254    0.00000    
     0.000     0.270    0.00000    
     0.000     0.286    0.00000    
     0.000     0.302    0.00000    
     0.000     0.317    0.00000    
     0.000     0.333    0.00000    
     0.000     0.349    0.00000    
     0.000     0.365    0.00000    
     0.000     0.381    0.00000    
     0.000     0.397    0.00000    
     0.000     0.413    0.00000    
     0.000     0.429    0.00000    
     0.000     0.444    0.00000    
     0.000     0.460    0.00000    
     0.000     0.476    0.00000    
     0.000     0.492    0.00000    
     0.000     0.508    0.00000    
     0.000     0.524    0.00000    
     0.000     0.540    0.00000    
     0.000     0.556    0.00000    
     0.000     0.571    0.00000    
     0.000     0.587    0.00000    
     0.000     0.603    0.00000    
     0.000     0.619    0.00000    
     0.000     0.635    0.00000    
     0.000     0.651    0.00000    
     0.000     0.667    0.00000    
     0.000     0.683    0.00000    
     0.000     0.698    0.00000    
     0.000     0.714    0.00000    
     0.000     0.730    0.00000    
     0.000     0.746    0.00000    
     0.000     0.762    0.00000    
     0.000     0.778    0.00000    
     0.000     0.794    0.00000    
     0.000     0.810    0.00000    
     0.000     0.825    0.00000    
     0.000     0.841    0.00000    
     0.000     0.857    0.00000    
     0.000     0.873    0.00000    
     0.000     0.889    0.00000    
     0.000     0.905    0.00000    
     0.000     0.921    0.00000    
     0.000     0.937    0.00000    
     0.000     0.952    0.00000    
     0.000     0.968    0.00000    
     0.000     0.984    0.00000    
     0.000     1.000    0.00000    
     0.016     0.000   0.498459E-01
     0.016     0.016   0.367372E-01
     0.016     0.032   0.250756E-01
     0.016     0.048   0.157687E-01
     0.016     0.063   0.910290E-02
     0.016     0.079   0.481326E-02
     0.016     0.095   0.232851E-02
     0.016     0.111   0.103028E-02
     0.016     0.127   0.417042E-03
     0.016     0.143   0.154537E-03
     0.016     0.159   0.524679E-04
     0.016     0.175   0.163384E-04
     0.016     0.190   0.467130E-05
     0.016     0.206   0.122753E-05
     0.016     0.222   0.296773E-06
     0.016     0.238   0.660684E-07
     0.016     0.254   0.135543E-07
     0.016     0.270   0.256417E-08
     0.016     0.286   0.447519E-09
     0.016     0.302   0.720791E-10
     0.016     0.317   0.107152E-10
     0.016     0.333   0.147018E-11
     0.016     0.349   0.186130E-12
     0.016     0.365   0.217343E-13
     0.016     0.381   0.233920E-14
     0.016     0.397   0.231843E-15
     0.016     0.413   0.211356E-16
     0.016     0.429   0.176970E-17
     0.016     0.444   0.135854E-18
     0.016     0.460   0.954119E-20
     0.016     0.476   0.611467E-21
     0.016     0.492   0.356494E-22
     0.016     0.508   0.188391E-23
     0.016     0.524   0.898479E-25
     0.016     0.540   0.384713E-26
     0.016     0.556   0.146969E-27
     0.016     0.571   0.497121E-29
     0.016     0.587   0.147488E-30
     0.016     0.603   0.379295E-32
     0.016     0.619   0.832800E-34
     0.016     0.635   0.153015E-35
     0.016     0.651   0.228852E-37
     0.016     0.667   0.267607E-39
     0.016     0.683   0.229481E-41
     0.016     0.698   0.128338E-43
     0.016     0.714   0.351220E-46
     0.016     0.730    0.00000    
     0.016     0.746    0.00000    
     0.016     0.762    0.00000    
     0.016     0.778    0.00000    
     0.016     0.794    0.00000    
     0.016     0.810    0.00000    
     0.016     0.825    0.00000    
     0.016     0.841    0.00000    
     0.016     0.857    0.00000    
     0.016     0.873    0.00000    
     0.016     0.889    0.00000    
     0.016     0.905    0.00000    
     0.016     0.921    0.00000    
     0.016     0.937    0.00000    
     0.016     0.952    0.00000    
     0.016     0.968    0.00000    
     0.016     0.984    0.00000    
     0.016     1.000    0.00000    
     0.032     0.000   0.995678E-01
     0.032     0.016   0.733831E-01
     0.032     0.032   0.500889E-01
     0.032     0.048   0.314982E-01
     0.032     0.063   0.181832E-01
     0.032     0.079   0.961455E-02
     0.032     0.095   0.465123E-02
     0.032     0.111   0.205800E-02
     0.032     0.127   0.833048E-03
     0.032     0.143   0.308689E-03
     0.032     0.159   0.104805E-03
     0.032     0.175   0.326361E-04
     0.032     0.190   0.933098E-05
     0.032     0.206   0.245202E-05
     0.032     0.222   0.592808E-06
     0.032     0.238   0.131973E-06
     0.032     0.254   0.270749E-07
     0.032     0.270   0.512196E-08
     0.032     0.286   0.893926E-09
     0.032     0.302   0.143979E-09
     0.032     0.317   0.214038E-10
     0.032     0.333   0.293671E-11
     0.032     0.349   0.371797E-12
     0.032     0.365   0.434145E-13
     0.032     0.381   0.467259E-14
     0.032     0.397   0.463109E-15
     0.032     0.413   0.422186E-16
     0.032     0.429   0.353499E-17
     0.032     0.444   0.271370E-18
     0.032     0.460   0.190587E-19
     0.032     0.476   0.122141E-20
     0.032     0.492   0.712103E-22
     0.032     0.508   0.376314E-23
     0.032     0.524   0.179472E-24
     0.032     0.540   0.768471E-26
     0.032     0.556   0.293573E-27
     0.032     0.571   0.993006E-29
     0.032     0.587   0.294609E-30
     0.032     0.603   0.757647E-32
     0.032     0.619   0.166353E-33
     0.032     0.635   0.305649E-35
     0.032     0.651   0.457135E-37
     0.032     0.667   0.534548E-39
     0.032     0.683   0.458390E-41
     0.032     0.698   0.256356E-43
     0.032     0.714   0.701566E-46
     0.032     0.730    0.00000    
     0.032     0.746    0.00000    
     0.032     0.762    0.00000    
     0.032     0.778    0.00000    
     0.032     0.794    0.00000    
     0.032     0.810    0.00000    
     0.032     0.825    0.00000    
     0.032     0.841    0.00000    
     0.032     0.857    0.00000    
     0.032     0.873    0.00000    
     0.032     0.889    0.00000    
     0.032     0.905    0.00000    
     0.032     0.921    0.00000    
     0.032     0.937    0.00000    
     0.032     0.952    0.00000    
     0.032     0.968    0.00000    
     0.032     0.984    0.00000    
     0.032     1.000    0.00000    
     0.048     0.000   0.149042    
     0.048     0.016   0.109846    
     0.048     0.032   0.749776E-01
     0.048     0.048   0.471494E-01
     0.048     0.063   0.272182E-01
     0.048     0.079   0.143919E-01
     0.048     0.095   0.696239E-02
     0.048     0.111   0.308060E-02
     0.048     0.127   0.124698E-02
     0.048     0.143   0.462074E-03
     0.048     0.159   0.156882E-03
     0.048     0.175   0.488527E-04
     0.048     0.190   0.139675E-04
     0.048     0.206   0.367040E-05
     0.048     0.222   0.887369E-06
     0.048     0.238   0.197549E-06
     0.048     0.254   0.405282E-07
     0.048     0.270   0.766702E-08
     0.048     0.286   0.133811E-08
     0.048     0.302   0.215521E-09
     0.048     0.317   0.320392E-10
     0.048     0.333   0.439594E-11
     0.048     0.349   0.556540E-12
     0.048     0.365   0.649868E-13
     0.048     0.381   0.699436E-14
     0.048     0.397   0.693224E-15
     0.048     0.413   0.631967E-16
     0.048     0.429   0.529150E-17
     0.048     0.444   0.406212E-18
     0.048     0.460   0.285287E-19
     0.048     0.476   0.182832E-20
     0.048     0.492   0.106594E-21
     0.048     0.508   0.563301E-23
     0.048     0.524   0.268651E-24
     0.048     0.540   0.115032E-25
     0.048     0.556   0.439447E-27
     0.048     0.571   0.148642E-28
     0.048     0.587   0.440997E-30
     0.048     0.603   0.113412E-31
     0.048     0.619   0.249012E-33
     0.048     0.635   0.457524E-35
     0.048     0.651   0.684281E-37
     0.048     0.667   0.800161E-39
     0.048     0.683   0.686161E-41
     0.048     0.698   0.383737E-43
     0.048     0.714   0.105017E-45
     0.048     0.730    0.00000    
     0.048     0.746    0.00000    
     0.048     0.762    0.00000    
     0.048     0.778    0.00000    
     0.048     0.794    0.00000    
     0.048     0.810    0.00000    
     0.048     0.825    0.00000    
     0.048     0.841    0.00000    
     0.048     0.857    0.00000    
     0.048     0.873    0.00000    
     0.048     0.889    0.00000    
     0.048     0.905    0.00000    
     0.048     0.921    0.00000    
     0.048     0.937    0.00000    
     0.048     0.952    0.00000    
     0.048     0.968    0.00000    
     0.048     0.984    0.00000    
     0.048     1.000    0.00000    
     0.063     0.000   0.198146    
     0.063     0.016   0.146037    
     0.063     0.032   0.996800E-01
     0.063     0.048   0.626834E-01
     0.063     0.063   0.361856E-01
     0.063     0.079   0.191335E-01
     0.063     0.095   0.925624E-02
     0.063     0.111   0.409555E-02
     0.063     0.127   0.165782E-02
     0.063     0.143   0.614310E-03
     0.063     0.159   0.208569E-03
     0.063     0.175   0.649479E-04
     0.063     0.190   0.185692E-04
     0.063     0.206   0.487966E-05
     0.063     0.222   0.117972E-05
     0.063     0.238   0.262633E-06
     0.063     0.254   0.538807E-07
     0.063     0.270   0.101930E-07
     0.063     0.286   0.177897E-08
     0.063     0.302   0.286527E-09
     0.063     0.317   0.425950E-10
     0.063     0.333   0.584424E-11
     0.063     0.349   0.739900E-12
     0.063     0.365   0.863975E-13
     0.063     0.381   0.929874E-14
     0.063     0.397   0.921615E-15
     0.063     0.413   0.840177E-16
     0.063     0.429   0.703485E-17
     0.063     0.444   0.540043E-18
     0.063     0.460   0.379279E-19
     0.063     0.476   0.243069E-20
     0.063     0.492   0.141713E-21
     0.063     0.508   0.748887E-23
     0.063     0.524   0.357161E-24
     0.063     0.540   0.152930E-25
     0.063     0.556   0.584229E-27
     0.063     0.571   0.197614E-28
     0.063     0.587   0.586289E-30
     0.063     0.603   0.150776E-31
     0.063     0.619   0.331052E-33
     0.063     0.635   0.608261E-35
     0.063     0.651   0.909727E-37
     0.063     0.667   0.106378E-38
     0.063     0.683   0.912225E-41
     0.063     0.698   0.510164E-43
     0.063     0.714   0.139616E-45
     0.063     0.730    0.00000    
     0.063     0.746    0.00000    
     0.063     0.762    0.00000    
     0.063     0.778    0.00000    
     0.063     0.794    0.00000    
     0.063     0.810    0.00000    
     0.063     0.825    0.00000    
     0.063     0.841    0.00000    
     0.063     0.857    0.00000    
     0.063     0.873    0.00000    
     0.063     0.889    0.00000    
     0.063     0.905    0.00000    
     0.063     0.921    0.00000    
     0.063     0.937    0.00000    
     0.063     0.952    0.00000    
     0.063     0.968    0.00000    
     0.063     0.984    0.00000    
     0.063     1.000    0.00000    
     0.079     0.000   0.246757    
     0.079     0.016   0.181864    
     0.079     0.032   0.124134    
     0.079     0.048   0.780615E-01
     0.079     0.063   0.450631E-01
     0.079     0.079   0.238276E-01
     0.079     0.095   0.115271E-01
     0.079     0.111   0.510031E-02
     0.079     0.127   0.206453E-02
     0.079     0.143   0.765019E-03
     0.079     0.159   0.259737E-03
     0.079     0.175   0.808816E-04
     0.079     0.190   0.231248E-04
     0.079     0.206   0.607679E-05
     0.079     0.222   0.146915E-05
     0.079     0.238   0.327065E-06
     0.079     0.254   0.670992E-07
     0.079     0.270   0.126937E-07
     0.079     0.286   0.221540E-08
     0.079     0.302   0.356821E-09
     0.079     0.317   0.530448E-10
     0.079     0.333   0.727801E-11
     0.079     0.349   0.921419E-12
     0.079     0.365   0.107593E-12
     0.079     0.381   0.115800E-13
     0.079     0.397   0.114772E-14
     0.079     0.413   0.104630E-15
     0.079     0.429   0.876071E-17
     0.079     0.444   0.672532E-18
     0.079     0.460   0.472328E-19
     0.079     0.476   0.302701E-20
     0.079     0.492   0.176479E-21
     0.079     0.508   0.932612E-23
     0.079     0.524   0.444783E-24
     0.079     0.540   0.190449E-25
     0.079     0.556   0.727558E-27
     0.079     0.571   0.246095E-28
     0.079     0.587   0.730124E-30
     0.079     0.603   0.187766E-31
     0.079     0.619   0.412270E-33
     0.079     0.635   0.757486E-35
     0.079     0.651   0.113291E-36
     0.079     0.667   0.132476E-38
     0.079     0.683   0.113602E-40
     0.079     0.698   0.635323E-43
     0.079     0.714   0.173868E-45
     0.079     0.730    0.00000    
     0.079     0.746    0.00000    
     0.079     0.762    0.00000    
     0.079     0.778    0.00000    
     0.079     0.794    0.00000    
     0.079     0.810    0.00000    
     0.079     0.825    0.00000    
     0.079     0.841    0.00000    
     0.079     0.857    0.00000    
     0.079     0.873    0.00000    
     0.079     0.889    0.00000    
     0.079     0.905    0.00000    
     0.079     0.921    0.00000    
     0.079     0.937    0.00000    
     0.079     0.952    0.00000    
     0.079     0.968    0.00000    
     0.079     0.984    0.00000    
     0.079     1.000    0.00000    
     0.095     0.000   0.294755    
     0.095     0.016   0.217239    
     0.095     0.032   0.148280    
     0.095     0.048   0.932455E-01
     0.095     0.063   0.538285E-01
     0.095     0.079   0.284624E-01
     0.095     0.095   0.137693E-01
     0.095     0.111   0.609239E-02
     0.095     0.127   0.246611E-02
     0.095     0.143   0.913826E-03
     0.095     0.159   0.310260E-03
     0.095     0.175   0.966142E-04
     0.095     0.190   0.276229E-04
     0.095     0.206   0.725881E-05
     0.095     0.222   0.175491E-05
     0.095     0.238   0.390684E-06
     0.095     0.254   0.801510E-07
     0.095     0.270   0.151628E-07
     0.095     0.286   0.264633E-08
     0.095     0.302   0.426228E-09
     0.095     0.317   0.633627E-10
     0.095     0.333   0.869368E-11
     0.095     0.349   0.110065E-11
     0.095     0.365   0.128522E-12
     0.095     0.381   0.138325E-13
     0.095     0.397   0.137096E-14
     0.095     0.413   0.124982E-15
     0.095     0.429   0.104648E-16
     0.095     0.444   0.803349E-18
     0.095     0.460   0.564202E-19
     0.095     0.476   0.361580E-20
     0.095     0.492   0.210807E-21
     0.095     0.508   0.111402E-22
     0.095     0.524   0.531300E-24
     0.095     0.540   0.227494E-25
     0.095     0.556   0.869078E-27
     0.095     0.571   0.293964E-28
     0.095     0.587   0.872143E-30
     0.095     0.603   0.224290E-31
     0.095     0.619   0.492462E-33
     0.095     0.635   0.904828E-35
     0.095     0.651   0.135328E-36
     0.095     0.667   0.158245E-38
     0.095     0.683   0.135699E-40
     0.095     0.698   0.758902E-43
     0.095     0.714   0.207688E-45
     0.095     0.730    0.00000    
     0.095     0.746    0.00000    
     0.095     0.762    0.00000    
     0.095     0.778    0.00000    
     0.095     0.794    0.00000    
     0.095     0.810    0.00000    
     0.095     0.825    0.00000    
     0.095     0.841    0.00000    
     0.095     0.857    0.00000    
     0.095     0.873    0.00000    
     0.095     0.889    0.00000    
     0.095     0.905    0.00000    
     0.095     0.921    0.00000    
     0.095     0.937    0.00000    
     0.095     0.952    0.00000    
     0.095     0.968    0.00000    
     0.095     0.984    0.00000    
     0.095     1.000    0.00000    
     0.111     0.000   0.342020    
     0.111     0.016   0.252074    
     0.111     0.032   0.172058    
     0.111     0.048   0.108198    
     0.111     0.063   0.624600E-01
     0.111     0.079   0.330264E-01
     0.111     0.095   0.159772E-01
     0.111     0.111   0.706933E-02
     0.111     0.127   0.286156E-02
     0.111     0.143   0.106036E-02
     0.111     0.159   0.360011E-03
     0.111     0.175   0.112107E-03
     0.111     0.190   0.320523E-04
     0.111     0.206   0.842279E-05
     0.111     0.222   0.203632E-05
     0.111     0.238   0.453332E-06
     0.111     0.254   0.930035E-07
     0.111     0.270   0.175942E-07
     0.111     0.286   0.307068E-08
     0.111     0.302   0.494575E-09
     0.111     0.317   0.735232E-10
     0.111     0.333   0.100877E-10
     0.111     0.349   0.127714E-11
     0.111     0.365   0.149131E-12
     0.111     0.381   0.160506E-13
     0.111     0.397   0.159080E-14
     0.111     0.413   0.145023E-15
     0.111     0.429   0.121429E-16
     0.111     0.444   0.932169E-18
     0.111     0.460   0.654674E-19
     0.111     0.476   0.419561E-20
     0.111     0.492   0.244611E-21
     0.111     0.508   0.129265E-22
     0.111     0.524   0.616496E-24
     0.111     0.540   0.263973E-25
     0.111     0.556   0.100844E-26
     0.111     0.571   0.341102E-28
     0.111     0.587   0.101199E-29
     0.111     0.603   0.260255E-31
     0.111     0.619   0.571430E-33
     0.111     0.635   0.104992E-34
     0.111     0.651   0.157028E-36
     0.111     0.667   0.183620E-38
     0.111     0.683   0.157459E-40
     0.111     0.698   0.880594E-43
     0.111     0.714   0.240991E-45
     0.111     0.730    0.00000    
     0.111     0.746    0.00000    
     0.111     0.762    0.00000    
     0.111     0.778    0.00000    
     0.111     0.794    0.00000    
     0.111     0.810    0.00000    
     0.111     0.825    0.00000    
     0.111     0.841    0.00000    
     0.111     0.857    0.00000    
     0.111     0.873    0.00000    
     0.111     0.889    0.00000    
     0.111     0.905    0.00000    
     0.111     0.921    0.00000    
     0.111     0.937    0.00000    
     0.111     0.952    0.00000    
     0.111     0.968    0.00000    
     0.111     0.984    0.00000    
     0.111     1.000    0.00000    
     0.127     0.000   0.388435    
     0.127     0.016   0.286283    
     0.127     0.032   0.195407    
     0.127     0.048   0.122881    
     0.127     0.063   0.709363E-01
     0.127     0.079   0.375083E-01
     0.127     0.095   0.181454E-01
     0.127     0.111   0.802869E-02
     0.127     0.127   0.324989E-02
     0.127     0.143   0.120426E-02
     0.127     0.159   0.408867E-03
     0.127     0.175   0.127320E-03
     0.127     0.190   0.364021E-04
     0.127     0.206   0.956582E-05
     0.127     0.222   0.231267E-05
     0.127     0.238   0.514852E-06
     0.127     0.254   0.105625E-06
     0.127     0.270   0.199818E-07
     0.127     0.286   0.348739E-08
     0.127     0.302   0.561692E-09
     0.127     0.317   0.835008E-10
     0.127     0.333   0.114567E-10
     0.127     0.349   0.145046E-11
     0.127     0.365   0.169369E-12
     0.127     0.381   0.182287E-13
     0.127     0.397   0.180668E-14
     0.127     0.413   0.164704E-15
     0.127     0.429   0.137907E-16
     0.127     0.444   0.105867E-17
     0.127     0.460   0.743518E-19
     0.127     0.476   0.476498E-20
     0.127     0.492   0.277806E-21
     0.127     0.508   0.146808E-22
     0.127     0.524   0.700159E-24
     0.127     0.540   0.299796E-25
     0.127     0.556   0.114529E-26
     0.127     0.571   0.387392E-28
     0.127     0.587   0.114933E-29
     0.127     0.603   0.295574E-31
     0.127     0.619   0.648977E-33
     0.127     0.635   0.119240E-34
     0.127     0.651   0.178338E-36
     0.127     0.667   0.208538E-38
     0.127     0.683   0.178828E-40
     0.127     0.698   0.100010E-42
     0.127     0.714   0.273695E-45
     0.127     0.730    0.00000    
     0.127     0.746    0.00000    
     0.127     0.762    0.00000    
     0.127     0.778    0.00000    
     0.127     0.794    0.00000    
     0.127     0.810    0.00000    
     0.127     0.825    0.00000    
     0.127     0.841    0.00000    
     0.127     0.857    0.00000    
     0.127     0.873    0.00000    
     0.127     0.889    0.00000    
     0.127     0.905    0.00000    
     0.127     0.921    0.00000    
     0.127     0.937    0.00000    
     0.127     0.952    0.00000    
     0.127     0.968    0.00000    
     0.127     0.984    0.00000    
     0.127     1.000    0.00000    
     0.143     0.000   0.433884    
     0.143     0.016   0.319779    
     0.143     0.032   0.218271    
     0.143     0.048   0.137259    
     0.143     0.063   0.792362E-01
     0.143     0.079   0.418970E-01
     0.143     0.095   0.202685E-01
     0.143     0.111   0.896809E-02
     0.143     0.127   0.363015E-02
     0.143     0.143   0.134516E-02
     0.143     0.159   0.456707E-03
     0.143     0.175   0.142217E-03
     0.143     0.190   0.406613E-04
     0.143     0.206   0.106851E-04
     0.143     0.222   0.258326E-05
     0.143     0.238   0.575093E-06
     0.143     0.254   0.117983E-06
     0.143     0.270   0.223198E-07
     0.143     0.286   0.389543E-08
     0.143     0.302   0.627413E-09
     0.143     0.317   0.932708E-10
     0.143     0.333   0.127972E-10
     0.143     0.349   0.162017E-11
     0.143     0.365   0.189186E-12
     0.143     0.381   0.203616E-13
     0.143     0.397   0.201808E-14
     0.143     0.413   0.183975E-15
     0.143     0.429   0.154043E-16
     0.143     0.444   0.118254E-17
     0.143     0.460   0.830513E-19
     0.143     0.476   0.532251E-20
     0.143     0.492   0.310311E-21
     0.143     0.508   0.163985E-22
     0.143     0.524   0.782081E-24
     0.143     0.540   0.334874E-25
     0.143     0.556   0.127930E-26
     0.143     0.571   0.432719E-28
     0.143     0.587   0.128381E-29
     0.143     0.603   0.330157E-31
     0.143     0.619   0.724911E-33
     0.143     0.635   0.133192E-34
     0.143     0.651   0.199204E-36
     0.143     0.667   0.232938E-38
     0.143     0.683   0.199751E-40
     0.143     0.698   0.111711E-42
     0.143     0.714   0.305719E-45
     0.143     0.730    0.00000    
     0.143     0.746    0.00000    
     0.143     0.762    0.00000    
     0.143     0.778    0.00000    
     0.143     0.794    0.00000    
     0.143     0.810    0.00000    
     0.143     0.825    0.00000    
     0.143     0.841    0.00000    
     0.143     0.857    0.00000    
     0.143     0.873    0.00000    
     0.143     0.889    0.00000    
     0.143     0.905    0.00000    
     0.143     0.921    0.00000    
     0.143     0.937    0.00000    
     0.143     0.952    0.00000    
     0.143     0.968    0.00000    
     0.143     0.984    0.00000    
     0.143     1.000    0.00000    
     0.159     0.000   0.478254    
     0.159     0.016   0.352481    
     0.159     0.032   0.240592    
     0.159     0.048   0.151295    
     0.159     0.063   0.873392E-01
     0.159     0.079   0.461815E-01
     0.159     0.095   0.223413E-01
     0.159     0.111   0.988519E-02
     0.159     0.127   0.400138E-02
     0.159     0.143   0.148273E-02
     0.159     0.159   0.503411E-03
     0.159     0.175   0.156761E-03
     0.159     0.190   0.448195E-04
     0.159     0.206   0.117778E-04
     0.159     0.222   0.284743E-05
     0.159     0.238   0.633903E-06
     0.159     0.254   0.130049E-06
     0.159     0.270   0.246023E-07
     0.159     0.286   0.429379E-08
     0.159     0.302   0.691574E-09
     0.159     0.317   0.102809E-09
     0.159     0.333   0.141059E-10
     0.159     0.349   0.178585E-11
     0.159     0.365   0.208533E-12
     0.159     0.381   0.224438E-13
     0.159     0.397   0.222445E-14
     0.159     0.413   0.202789E-15
     0.159     0.429   0.169796E-16
     0.159     0.444   0.130347E-17
     0.159     0.460   0.915444E-19
     0.159     0.476   0.586681E-20
     0.159     0.492   0.342044E-21
     0.159     0.508   0.180755E-22
     0.159     0.524   0.862059E-24
     0.159     0.540   0.369119E-25
     0.159     0.556   0.141012E-26
     0.159     0.571   0.476970E-28
     0.159     0.587   0.141509E-29
     0.159     0.603   0.363920E-31
     0.159     0.619   0.799042E-33
     0.159     0.635   0.146813E-34
     0.159     0.651   0.219576E-36
     0.159     0.667   0.256759E-38
     0.159     0.683   0.220179E-40
     0.159     0.698   0.123135E-42
     0.159     0.714   0.336983E-45
     0.159     0.730    0.00000    
     0.159     0.746    0.00000    
     0.159     0.762    0.00000    
     0.159     0.778    0.00000    
     0.159     0.794    0.00000    
     0.159     0.810    0.00000    
     0.159     0.825    0.00000    
     0.159     0.841    0.00000    
     0.159     0.857    0.00000    
     0.159     0.873    0.00000    
     0.159     0.889    0.00000    
     0.159     0.905    0.00000    
     0.159     0.921    0.00000    
     0.159     0.937    0.00000    
     0.159     0.952    0.00000    
     0.159     0.968    0.00000    
     0.159     0.984    0.00000    
     0.159     1.000    0.00000    
     0.175     0.000   0.521435    
     0.175     0.016   0.384306    
     0.175     0.032   0.262315    
     0.175     0.048   0.164956    
     0.175     0.063   0.952250E-01
     0.175     0.079   0.503512E-01
     0.175     0.095   0.243584E-01
     0.175     0.111   0.107777E-01
     0.175     0.127   0.436266E-02
     0.175     0.143   0.161660E-02
     0.175     0.159   0.548864E-03
     0.175     0.175   0.170915E-03
     0.175     0.190   0.488662E-04
     0.175     0.206   0.128412E-04
     0.175     0.222   0.310452E-05
     0.175     0.238   0.691138E-06
     0.175     0.254   0.141791E-06
     0.175     0.270   0.268236E-07
     0.175     0.286   0.468148E-08
     0.175     0.302   0.754016E-09
     0.175     0.317   0.112092E-09
     0.175     0.333   0.153795E-10
     0.175     0.349   0.194710E-11
     0.175     0.365   0.227361E-12
     0.175     0.381   0.244703E-13
     0.175     0.397   0.242529E-14
     0.175     0.413   0.221098E-15
     0.175     0.429   0.185127E-16
     0.175     0.444   0.142116E-17
     0.175     0.460   0.998099E-19
     0.175     0.476   0.639652E-20
     0.175     0.492   0.372927E-21
     0.175     0.508   0.197075E-22
     0.175     0.524   0.939894E-24
     0.175     0.540   0.402447E-25
     0.175     0.556   0.153744E-26
     0.175     0.571   0.520036E-28
     0.175     0.587   0.154286E-29
     0.175     0.603   0.396778E-31
     0.175     0.619   0.871187E-33
     0.175     0.635   0.160068E-34
     0.175     0.651   0.239401E-36
     0.175     0.667   0.279942E-38
     0.175     0.683   0.240058E-40
     0.175     0.698   0.134253E-42
     0.175     0.714   0.367409E-45
     0.175     0.730    0.00000    
     0.175     0.746    0.00000    
     0.175     0.762    0.00000    
     0.175     0.778    0.00000    
     0.175     0.794    0.00000    
     0.175     0.810    0.00000    
     0.175     0.825    0.00000    
     0.175     0.841    0.00000    
     0.175     0.857    0.00000    
     0.175     0.873    0.00000    
     0.175     0.889    0.00000    
     0.175     0.905    0.00000    
     0.175     0.921    0.00000    
     0.175     0.937    0.00000    
     0.175     0.952    0.00000    
     0.175     0.968    0.00000    
     0.175     0.984    0.00000    
     0.175     1.000    0.00000    
     0.190     0.000   0.563320    
     0.190     0.016   0.415176    
     0.190     0.032   0.283385    
     0.190     0.048   0.178206    
     0.190     0.063   0.102874    
     0.190     0.079   0.543957E-01
     0.190     0.095   0.263151E-01
     0.190     0.111   0.116434E-01
     0.190     0.127   0.471310E-02
     0.190     0.143   0.174645E-02
     0.190     0.159   0.592952E-03
     0.190     0.175   0.184644E-03
     0.190     0.190   0.527914E-04
     0.190     0.206   0.138727E-04
     0.190     0.222   0.335390E-05
     0.190     0.238   0.746655E-06
     0.190     0.254   0.153180E-06
     0.190     0.270   0.289783E-07
     0.190     0.286   0.505752E-08
     0.190     0.302   0.814583E-09
     0.190     0.317   0.121095E-09
     0.190     0.333   0.166149E-10
     0.190     0.349   0.210350E-11
     0.190     0.365   0.245624E-12
     0.190     0.381   0.264359E-13
     0.190     0.397   0.262011E-14
     0.190     0.413   0.238858E-15
     0.190     0.429   0.199997E-16
     0.190     0.444   0.153532E-17
     0.190     0.460   0.107827E-18
     0.190     0.476   0.691033E-20
     0.190     0.492   0.402883E-21
     0.190     0.508   0.212905E-22
     0.190     0.524   0.101539E-23
     0.190     0.540   0.434774E-25
     0.190     0.556   0.166094E-26
     0.190     0.571   0.561808E-28
     0.190     0.587   0.166679E-29
     0.190     0.603   0.428650E-31
     0.190     0.619   0.941166E-33
     0.190     0.635   0.172926E-34
     0.190     0.651   0.258631E-36
     0.190     0.667   0.302429E-38
     0.190     0.683   0.259341E-40
     0.190     0.698   0.145037E-42
     0.190     0.714   0.396921E-45
     0.190     0.730    0.00000    
     0.190     0.746    0.00000    
     0.190     0.762    0.00000    
     0.190     0.778    0.00000    
     0.190     0.794    0.00000    
     0.190     0.810    0.00000    
     0.190     0.825    0.00000    
     0.190     0.841    0.00000    
     0.190     0.857    0.00000    
     0.190     0.873    0.00000    
     0.190     0.889    0.00000    
     0.190     0.905    0.00000    
     0.190     0.921    0.00000    
     0.190     0.937    0.00000    
     0.190     0.952    0.00000    
     0.190     0.968    0.00000    
     0.190     0.984    0.00000    