Title="Temperature Data"
Variables="X","Y","T"
 
Zone I=    64, J=    64, F=POINT
     0.000     0.000    0.00000    
     0.000     0.016    0.00000    
     0.000     0.032    0.00000    
     0.000     0.048    0.00000    
     0.000     0.063    0.00000    
     0.000     0.079    0.00000    
     0.000     0.095    0.00000    
     0.000     0.111    0.00000    
     0.000     0.127    0.00000    
     0.000     0.143    0.00000    
     0.000     0.159    0.00000    
     0.000     0.175    0.00000    
     0.000     0.190    0.00000    
     0.000     0.206    0.00000    
     0.000     0.222    0.00000    
     0.000     0.238    0.00000    
     0.000     0.254    0.00000    
     0.000     0.270    0.00000    
     0.000     0.286    0.00000    
     0.000     0.302    0.00000    
     0.000     0.317    0.00000    
     0.000     0.333    0.00000    
     0.000     0.349    0.00000    
     0.000     0.365    0.00000    
     0.000     0.381    0.00000    
     0.000     0.397    0.00000    
     0.000     0.413    0.00000    
     0.000     0.429    0.00000    
     0.000     0.444    0.00000    
     0.000     0.460    0.00000    
     0.000     0.476    0.00000    
     0.000     0.492    0.00000    
     0.000     0.508    0.00000    
     0.000     0.524    0.00000    
     0.000     0.540    0.00000    
     0.000     0.556    0.00000    
     0.000     0.571    0.00000    
     0.000     0.587    0.00000    
     0.000     0.603    0.00000    
     0.000     0.619    0.00000    
     0.000     0.635    0.00000    
     0.000     0.651    0.00000    
     0.000     0.667    0.00000    
     0.000     0.683    0.00000    
     0.000     0.698    0.00000    
     0.000     0.714    0.00000    
     0.000     0.730    0.00000    
     0.000     0.746    0.00000    
     0.000     0.762    0.00000    
     0.000     0.778    0.00000    
     0.000     0.794    0.00000    
     0.000     0.810    0.00000    
     0.000     0.825    0.00000    
     0.000     0.841    0.00000    
     0.000     0.857    0.00000    
     0.000     0.873    0.00000    
     0.000     0.889    0.00000    
     0.000     0.905    0.00000    
     0.000     0.921    0.00000    
     0.000     0.937    0.00000    
     0.000     0.952    0.00000    
     0.000     0.968    0.00000    
     0.000     0.984    0.00000    
     0.000     1.000    0.00000    
     0.016     0.000   0.498459E-01
     0.016     0.016   0.372512E-01
     0.016     0.032   0.259491E-01
     0.016     0.048   0.167688E-01
     0.016     0.063   0.100183E-01
     0.016     0.079   0.552120E-02
     0.016     0.095   0.280326E-02
     0.016     0.111   0.131053E-02
     0.016     0.127   0.564135E-03
     0.016     0.143   0.223690E-03
     0.016     0.159   0.817561E-04
     0.016     0.175   0.275651E-04
     0.016     0.190   0.858142E-05
     0.016     0.206   0.246901E-05
     0.016     0.222   0.657122E-06
     0.016     0.238   0.161922E-06
     0.016     0.254   0.369699E-07
     0.016     0.270   0.782664E-08
     0.016     0.286   0.153725E-08
     0.016     0.302   0.280264E-09
     0.016     0.317   0.474453E-10
     0.016     0.333   0.745969E-11
     0.016     0.349   0.108940E-11
     0.016     0.365   0.147762E-12
     0.016     0.381   0.186104E-13
     0.016     0.397   0.217570E-14
     0.016     0.413   0.235967E-15
     0.016     0.429   0.237241E-16
     0.016     0.444   0.220906E-17
     0.016     0.460   0.190280E-18
     0.016     0.476   0.151404E-19
     0.016     0.492   0.111098E-20
     0.016     0.508   0.750302E-22
     0.016     0.524   0.465271E-23
     0.016     0.540   0.264192E-24
     0.016     0.556   0.136922E-25
     0.016     0.571   0.645225E-27
     0.016     0.587   0.275222E-28
     0.016     0.603   0.105699E-29
     0.016     0.619   0.363154E-31
     0.016     0.635   0.110759E-32
     0.016     0.651   0.297028E-34
     0.016     0.667   0.692097E-36
     0.016     0.683   0.137993E-37
     0.016     0.698   0.230737E-39
     0.016     0.714   0.314704E-41
     0.016     0.730   0.336256E-43
     0.016     0.746   0.263981E-45
     0.016     0.762   0.135403E-47
     0.016     0.778   0.340458E-50
     0.016     0.794    0.00000    
     0.016     0.810    0.00000    
     0.016     0.825    0.00000    
     0.016     0.841    0.00000    
     0.016     0.857    0.00000    
     0.016     0.873    0.00000    
     0.016     0.889    0.00000    
     0.016     0.905    0.00000    
     0.016     0.921    0.00000    
     0.016     0.937    0.00000    
     0.016     0.952    0.00000    
     0.016     0.968    0.00000    
     0.016     0.984    0.00000    
     0.016     1.000    0.00000    
     0.032     0.000   0.995678E-01
     0.032     0.016   0.744097E-01
     0.032     0.032   0.518338E-01
     0.032     0.048   0.334958E-01
     0.032     0.063   0.200117E-01
     0.032     0.079   0.110287E-01
     0.032     0.095   0.559954E-02
     0.032     0.111   0.261779E-02
     0.032     0.127   0.112687E-02
     0.032     0.143   0.446824E-03
     0.032     0.159   0.163309E-03
     0.032     0.175   0.550618E-04
     0.032     0.190   0.171415E-04
     0.032     0.206   0.493187E-05
     0.032     0.222   0.131261E-05
     0.032     0.238   0.323442E-06
     0.032     0.254   0.738480E-07
     0.032     0.270   0.156338E-07
     0.032     0.286   0.307068E-08
     0.032     0.302   0.559830E-09
     0.032     0.317   0.947726E-10
     0.032     0.333   0.149008E-10
     0.032     0.349   0.217609E-11
     0.032     0.365   0.295157E-12
     0.032     0.381   0.371745E-13
     0.032     0.397   0.434599E-14
     0.032     0.413   0.471347E-15
     0.032     0.429   0.473893E-16
     0.032     0.444   0.441262E-17
     0.032     0.460   0.380087E-18
     0.032     0.476   0.302431E-19
     0.032     0.492   0.221920E-20
     0.032     0.508   0.149874E-21
     0.032     0.524   0.929386E-23
     0.032     0.540   0.527728E-24
     0.032     0.556   0.273503E-25
     0.032     0.571   0.128885E-26
     0.032     0.587   0.549760E-28
     0.032     0.603   0.211135E-29
     0.032     0.619   0.725406E-31
     0.032     0.635   0.221243E-32
     0.032     0.651   0.593317E-34
     0.032     0.667   0.138247E-35
     0.032     0.683   0.275643E-37
     0.032     0.698   0.460900E-39
     0.032     0.714   0.628625E-41
     0.032     0.730   0.671676E-43
     0.032     0.746   0.527305E-45
     0.032     0.762   0.270469E-47
     0.032     0.778   0.680069E-50
     0.032     0.794    0.00000    
     0.032     0.810    0.00000    
     0.032     0.825    0.00000    
     0.032     0.841    0.00000    
     0.032     0.857    0.00000    
     0.032     0.873    0.00000    
     0.032     0.889    0.00000    
     0.032     0.905    0.00000    
     0.032     0.921    0.00000    
     0.032     0.937    0.00000    
     0.032     0.952    0.00000    
     0.032     0.968    0.00000    
     0.032     0.984    0.00000    
     0.032     1.000    0.00000    
     0.048     0.000   0.149042    
     0.048     0.016   0.111383    
     0.048     0.032   0.775895E-01
     0.048     0.048   0.501396E-01
     0.048     0.063   0.299553E-01
     0.048     0.079   0.165087E-01
     0.048     0.095   0.838191E-02
     0.048     0.111   0.391855E-02
     0.048     0.127   0.168680E-02
     0.048     0.143   0.668847E-03
     0.048     0.159   0.244456E-03
     0.048     0.175   0.824215E-04
     0.048     0.190   0.256590E-04
     0.048     0.206   0.738248E-05
     0.048     0.222   0.196484E-05
     0.048     0.238   0.484158E-06
     0.048     0.254   0.110542E-06
     0.048     0.270   0.234021E-07
     0.048     0.286   0.459648E-08
     0.048     0.302   0.838005E-09
     0.048     0.317   0.141864E-09
     0.048     0.333   0.223049E-10
     0.048     0.349   0.325737E-11
     0.048     0.365   0.441818E-12
     0.048     0.381   0.556462E-13
     0.048     0.397   0.650547E-14
     0.048     0.413   0.705555E-15
     0.048     0.429   0.709366E-16
     0.048     0.444   0.660521E-17
     0.048     0.460   0.568949E-18
     0.048     0.476   0.452707E-19
     0.048     0.492   0.332190E-20
     0.048     0.508   0.224345E-21
     0.048     0.524   0.139119E-22
     0.048     0.540   0.789951E-24
     0.048     0.556   0.409405E-25
     0.048     0.571   0.192926E-26
     0.048     0.587   0.822932E-28
     0.048     0.603   0.316046E-29
     0.048     0.619   0.108585E-30
     0.048     0.635   0.331177E-32
     0.048     0.651   0.888132E-34
     0.048     0.667   0.206941E-35
     0.048     0.683   0.412608E-37
     0.048     0.698   0.689917E-39
     0.048     0.714   0.940983E-41
     0.048     0.730   0.100543E-42
     0.048     0.746   0.789318E-45
     0.048     0.762   0.404862E-47
     0.048     0.778   0.101799E-49
     0.048     0.794    0.00000    
     0.048     0.810    0.00000    
     0.048     0.825    0.00000    
     0.048     0.841    0.00000    
     0.048     0.857    0.00000    
     0.048     0.873    0.00000    
     0.048     0.889    0.00000    
     0.048     0.905    0.00000    
     0.048     0.921    0.00000    
     0.048     0.937    0.00000    
     0.048     0.952    0.00000    
     0.048     0.968    0.00000    
     0.048     0.984    0.00000    
     0.048     1.000    0.00000    
     0.063     0.000   0.198146    
     0.063     0.016   0.148080    
     0.063     0.032   0.103152    
     0.063     0.048   0.666587E-01
     0.063     0.063   0.398245E-01
     0.063     0.079   0.219477E-01
     0.063     0.095   0.111434E-01
     0.063     0.111   0.520957E-02
     0.063     0.127   0.224254E-02
     0.063     0.143   0.889207E-03
     0.063     0.159   0.324995E-03
     0.063     0.175   0.109576E-03
     0.063     0.190   0.341127E-04
     0.063     0.206   0.981473E-05
     0.063     0.222   0.261218E-05
     0.063     0.238   0.643670E-06
     0.063     0.254   0.146962E-06
     0.063     0.270   0.311123E-07
     0.063     0.286   0.611085E-08
     0.063     0.302   0.111410E-08
     0.063     0.317   0.188603E-09
     0.063     0.333   0.296536E-10
     0.063     0.349   0.433055E-11
     0.063     0.365   0.587381E-12
     0.063     0.381   0.739796E-13
     0.063     0.397   0.864878E-14
     0.063     0.413   0.938010E-15
     0.063     0.429   0.943076E-16
     0.063     0.444   0.878139E-17
     0.063     0.460   0.756397E-18
     0.063     0.476   0.601857E-19
     0.063     0.492   0.441635E-20
     0.063     0.508   0.298258E-21
     0.063     0.524   0.184953E-22
     0.063     0.540   0.105021E-23
     0.063     0.556   0.544288E-25
     0.063     0.571   0.256488E-26
     0.063     0.587   0.109406E-27
     0.063     0.603   0.420171E-29
     0.063     0.619   0.144360E-30
     0.063     0.635   0.440287E-32
     0.063     0.651   0.118074E-33
     0.063     0.667   0.275121E-35
     0.063     0.683   0.548547E-37
     0.063     0.698   0.917219E-39
     0.063     0.714   0.125100E-40
     0.063     0.730   0.133668E-42
     0.063     0.746   0.104937E-44
     0.063     0.762   0.538249E-47
     0.063     0.778   0.135338E-49
     0.063     0.794    0.00000    
     0.063     0.810    0.00000    
     0.063     0.825    0.00000    
     0.063     0.841    0.00000    
     0.063     0.857    0.00000    
     0.063     0.873    0.00000    
     0.063     0.889    0.00000    
     0.063     0.905    0.00000    
     0.063     0.921    0.00000    
     0.063     0.937    0.00000    
     0.063     0.952    0.00000    
     0.063     0.968    0.00000    
     0.063     0.984    0.00000    
     0.063     1.000    0.00000    
     0.079     0.000   0.246757    
     0.079     0.016   0.184408    
     0.079     0.032   0.128459    
     0.079     0.048   0.830121E-01
     0.079     0.063   0.495946E-01
     0.079     0.079   0.273322E-01
     0.079     0.095   0.138773E-01
     0.079     0.111   0.648764E-02
     0.079     0.127   0.279270E-02
     0.079     0.143   0.110736E-02
     0.079     0.159   0.404726E-03
     0.079     0.175   0.136459E-03
     0.079     0.190   0.424815E-04
     0.079     0.206   0.122226E-04
     0.079     0.222   0.325302E-05
     0.079     0.238   0.801582E-06
     0.079     0.254   0.183016E-06
     0.079     0.270   0.387451E-07
     0.079     0.286   0.761003E-08
     0.079     0.302   0.138742E-08
     0.079     0.317   0.234873E-09
     0.079     0.333   0.369285E-10
     0.079     0.349   0.539297E-11
     0.079     0.365   0.731483E-12
     0.079     0.381   0.921290E-13
     0.079     0.397   0.107706E-13
     0.079     0.413   0.116813E-14
     0.079     0.429   0.117444E-15
     0.079     0.444   0.109357E-16
     0.079     0.460   0.941964E-18
     0.079     0.476   0.749511E-19
     0.079     0.492   0.549981E-20
     0.079     0.508   0.371430E-21
     0.079     0.524   0.230328E-22
     0.079     0.540   0.130786E-23
     0.079     0.556   0.677819E-25
     0.079     0.571   0.319413E-26
     0.079     0.587   0.136246E-27
     0.079     0.603   0.523252E-29
     0.079     0.619   0.179776E-30
     0.079     0.635   0.548303E-32
     0.079     0.651   0.147041E-33
     0.079     0.667   0.342616E-35
     0.079     0.683   0.683123E-37
     0.079     0.698   0.114224E-38
     0.079     0.714   0.155791E-40
     0.079     0.730   0.166460E-42
     0.079     0.746   0.130681E-44
     0.079     0.762   0.670298E-47
     0.079     0.778   0.168540E-49
     0.079     0.794    0.00000    
     0.079     0.810    0.00000    
     0.079     0.825    0.00000    
     0.079     0.841    0.00000    
     0.079     0.857    0.00000    
     0.079     0.873    0.00000    
     0.079     0.889    0.00000    
     0.079     0.905    0.00000    
     0.079     0.921    0.00000    
     0.079     0.937    0.00000    
     0.079     0.952    0.00000    
     0.079     0.968    0.00000    
     0.079     0.984    0.00000    
     0.079     1.000    0.00000    
     0.095     0.000   0.294755    
     0.095     0.016   0.220278    
     0.095     0.032   0.153446    
     0.095     0.048   0.991592E-01
     0.095     0.063   0.592415E-01
     0.095     0.079   0.326487E-01
     0.095     0.095   0.165766E-01
     0.095     0.111   0.774957E-02
     0.095     0.127   0.333592E-02
     0.095     0.143   0.132275E-02
     0.095     0.159   0.483451E-03
     0.095     0.175   0.163002E-03
     0.095     0.190   0.507448E-04
     0.095     0.206   0.146000E-04
     0.095     0.222   0.388578E-05
     0.095     0.238   0.957501E-06
     0.095     0.254   0.218615E-06
     0.095     0.270   0.462815E-07
     0.095     0.286   0.909029E-08
     0.095     0.302   0.165729E-08
     0.095     0.317   0.280560E-09
     0.095     0.333   0.441116E-10
     0.095     0.349   0.644197E-11
     0.095     0.365   0.873767E-12
     0.095     0.381   0.110049E-12
     0.095     0.397   0.128656E-13
     0.095     0.413   0.139535E-14
     0.095     0.429   0.140289E-15
     0.095     0.444   0.130629E-16
     0.095     0.460   0.112519E-17
     0.095     0.476   0.895301E-19
     0.095     0.492   0.656960E-20
     0.095     0.508   0.443678E-21
     0.095     0.524   0.275130E-22
     0.095     0.540   0.156226E-23
     0.095     0.556   0.809664E-25
     0.095     0.571   0.381543E-26
     0.095     0.587   0.162748E-27
     0.095     0.603   0.625032E-29
     0.095     0.619   0.214745E-30
     0.095     0.635   0.654956E-32
     0.095     0.651   0.175642E-33
     0.095     0.667   0.409260E-35
     0.095     0.683   0.816000E-37
     0.095     0.698   0.136442E-38
     0.095     0.714   0.186095E-40
     0.095     0.730   0.198839E-42
     0.095     0.746   0.156100E-44
     0.095     0.762   0.800681E-47
     0.095     0.778   0.201324E-49
     0.095     0.794    0.00000    
     0.095     0.810    0.00000    
     0.095     0.825    0.00000    
     0.095     0.841    0.00000    
     0.095     0.857    0.00000    
     0.095     0.873    0.00000    
     0.095     0.889    0.00000    
     0.095     0.905    0.00000    
     0.095     0.921    0.00000    
     0.095     0.937    0.00000    
     0.095     0.952    0.00000    
     0.095     0.968    0.00000    
     0.095     0.984    0.00000    
     0.095     1.000    0.00000    
     0.111     0.000   0.342020    
     0.111     0.016   0.255601    
     0.111     0.032   0.178051    
     0.111     0.048   0.115060    
     0.111     0.063   0.687411E-01
     0.111     0.079   0.378840E-01
     0.111     0.095   0.192347E-01
     0.111     0.111   0.899224E-02
     0.111     0.127   0.387084E-02
     0.111     0.143   0.153486E-02
     0.111     0.159   0.560974E-03
     0.111     0.175   0.189140E-03
     0.111     0.190   0.588819E-04
     0.111     0.206   0.169412E-04
     0.111     0.222   0.450888E-05
     0.111     0.238   0.111104E-05
     0.111     0.254   0.253671E-06
     0.111     0.270   0.537029E-07
     0.111     0.286   0.105479E-07
     0.111     0.302   0.192304E-08
     0.111     0.317   0.325548E-09
     0.111     0.333   0.511851E-10
     0.111     0.349   0.747497E-11
     0.111     0.365   0.101388E-11
     0.111     0.381   0.127696E-12
     0.111     0.397   0.149287E-13
     0.111     0.413   0.161910E-14
     0.111     0.429   0.162784E-15
     0.111     0.444   0.151576E-16
     0.111     0.460   0.130562E-17
     0.111     0.476   0.103887E-18
     0.111     0.492   0.762306E-20
     0.111     0.508   0.514824E-21
     0.111     0.524   0.319248E-22
     0.111     0.540   0.181277E-23
     0.111     0.556   0.939496E-25
     0.111     0.571   0.442725E-26
     0.111     0.587   0.188845E-27
     0.111     0.603   0.725258E-29
     0.111     0.619   0.249180E-30
     0.111     0.635   0.759980E-32
     0.111     0.651   0.203807E-33
     0.111     0.667   0.474886E-35
     0.111     0.683   0.946848E-37
     0.111     0.698   0.158321E-38
     0.111     0.714   0.215935E-40
     0.111     0.730   0.230724E-42
     0.111     0.746   0.181132E-44
     0.111     0.762   0.929072E-47
     0.111     0.778   0.233607E-49
     0.111     0.794    0.00000    
     0.111     0.810    0.00000    
     0.111     0.825    0.00000    
     0.111     0.841    0.00000    
     0.111     0.857    0.00000    
     0.111     0.873    0.00000    
     0.111     0.889    0.00000    
     0.111     0.905    0.00000    
     0.111     0.921    0.00000    
     0.111     0.937    0.00000    
     0.111     0.952    0.00000    
     0.111     0.968    0.00000    
     0.111     0.984    0.00000    
     0.111     1.000    0.00000    
     0.127     0.000   0.388435    
     0.127     0.016   0.290288    
     0.127     0.032   0.202214    
     0.127     0.048   0.130674    
     0.127     0.063   0.780697E-01
     0.127     0.079   0.430251E-01
     0.127     0.095   0.218450E-01
     0.127     0.111   0.102126E-01
     0.127     0.127   0.439615E-02
     0.127     0.143   0.174315E-02
     0.127     0.159   0.637102E-03
     0.127     0.175   0.214807E-03
     0.127     0.190   0.668726E-04
     0.127     0.206   0.192403E-04
     0.127     0.222   0.512077E-05
     0.127     0.238   0.126182E-05
     0.127     0.254   0.288096E-06
     0.127     0.270   0.609908E-07
     0.127     0.286   0.119794E-07
     0.127     0.302   0.218401E-08
     0.127     0.317   0.369727E-09
     0.127     0.333   0.581313E-10
     0.127     0.349   0.848937E-11
     0.127     0.365   0.115147E-11
     0.127     0.381   0.145026E-12
     0.127     0.397   0.169546E-13
     0.127     0.413   0.183882E-14
     0.127     0.429   0.184875E-15
     0.127     0.444   0.172145E-16
     0.127     0.460   0.148280E-17
     0.127     0.476   0.117985E-18
     0.127     0.492   0.865756E-20
     0.127     0.508   0.584689E-21
     0.127     0.524   0.362573E-22
     0.127     0.540   0.205878E-23
     0.127     0.556   0.106699E-24
     0.127     0.571   0.502806E-26
     0.127     0.587   0.214473E-27
     0.127     0.603   0.823681E-29
     0.127     0.619   0.282996E-30
     0.127     0.635   0.863115E-32
     0.127     0.651   0.231465E-33
     0.127     0.667   0.539331E-35
     0.127     0.683   0.107534E-36
     0.127     0.698   0.179806E-38
     0.127     0.714   0.245239E-40
     0.127     0.730   0.262035E-42
     0.127     0.746   0.205713E-44
     0.127     0.762   0.105515E-46
     0.127     0.778   0.265309E-49
     0.127     0.794    0.00000    
     0.127     0.810    0.00000    
     0.127     0.825    0.00000    
     0.127     0.841    0.00000    
     0.127     0.857    0.00000    
     0.127     0.873    0.00000    
     0.127     0.889    0.00000    
     0.127     0.905    0.00000    
     0.127     0.921    0.00000    
     0.127     0.937    0.00000    
     0.127     0.952    0.00000    
     0.127     0.968    0.00000    
     0.127     0.984    0.00000    
     0.127     1.000    0.00000    
     0.143     0.000   0.433884    
     0.143     0.016   0.324253    
     0.143     0.032   0.225874    
     0.143     0.048   0.145964    
     0.143     0.063   0.872043E-01
     0.143     0.079   0.480593E-01
     0.143     0.095   0.244010E-01
     0.143     0.111   0.114075E-01
     0.143     0.127   0.491052E-02
     0.143     0.143   0.194711E-02
     0.143     0.159   0.711646E-03
     0.143     0.175   0.239941E-03
     0.143     0.190   0.746970E-04
     0.143     0.206   0.214915E-04
     0.143     0.222   0.571992E-05
     0.143     0.238   0.140945E-05
     0.143     0.254   0.321805E-06
     0.143     0.270   0.681270E-07
     0.143     0.286   0.133810E-07
     0.143     0.302   0.243956E-08
     0.143     0.317   0.412988E-09
     0.143     0.333   0.649329E-10
     0.143     0.349   0.948268E-11
     0.143     0.365   0.128620E-11
     0.143     0.381   0.161994E-12
     0.143     0.397   0.189384E-13
     0.143     0.413   0.205397E-14
     0.143     0.429   0.206507E-15
     0.143     0.444   0.192287E-16
     0.143     0.460   0.165629E-17
     0.143     0.476   0.131790E-18
     0.143     0.492   0.967054E-20
     0.143     0.508   0.653101E-21
     0.143     0.524   0.404996E-22
     0.143     0.540   0.229966E-23
     0.143     0.556   0.119184E-24
     0.143     0.571   0.561637E-26
     0.143     0.587   0.239567E-27
     0.143     0.603   0.920056E-29
     0.143     0.619   0.316108E-30
     0.143     0.635   0.964104E-32
     0.143     0.651   0.258548E-33
     0.143     0.667   0.602436E-35
     0.143     0.683   0.120116E-36
     0.143     0.698   0.200845E-38
     0.143     0.714   0.273934E-40
     0.143     0.730   0.292694E-42
     0.143     0.746   0.229782E-44
     0.143     0.762   0.117861E-46
     0.143     0.778   0.296351E-49
     0.143     0.794    0.00000    
     0.143     0.810    0.00000    
     0.143     0.825    0.00000    
     0.143     0.841    0.00000    
     0.143     0.857    0.00000    
     0.143     0.873    0.00000    
     0.143     0.889    0.00000    
     0.143     0.905    0.00000    
     0.143     0.921    0.00000    
     0.143     0.937    0.00000    
     0.143     0.952    0.00000    
     0.143     0.968    0.00000    
     0.143     0.984    0.00000    
     0.143     1.000    0.00000    
     0.159     0.000   0.478254    
     0.159     0.016   0.357412    
     0.159     0.032   0.248973    
     0.159     0.048   0.160890    
     0.159     0.063   0.961221E-01
     0.159     0.079   0.529740E-01
     0.159     0.095   0.268963E-01
     0.159     0.111   0.125740E-01
     0.159     0.127   0.541268E-02
     0.159     0.143   0.214623E-02
     0.159     0.159   0.784422E-03
     0.159     0.175   0.264478E-03
     0.159     0.190   0.823358E-04
     0.159     0.206   0.236893E-04
     0.159     0.222   0.630486E-05
     0.159     0.238   0.155359E-05
     0.159     0.254   0.354714E-06
     0.159     0.270   0.750939E-07
     0.159     0.286   0.147494E-07
     0.159     0.302   0.268903E-08
     0.159     0.317   0.455221E-09
     0.159     0.333   0.715732E-10
     0.159     0.349   0.104524E-10
     0.159     0.365   0.141773E-11
     0.159     0.381   0.178560E-12
     0.159     0.397   0.208751E-13
     0.159     0.413   0.226402E-14
     0.159     0.429   0.227625E-15
     0.159     0.444   0.211951E-16
     0.159     0.460   0.182567E-17
     0.159     0.476   0.145267E-18
     0.159     0.492   0.106595E-19
     0.159     0.508   0.719889E-21
     0.159     0.524   0.446412E-22
     0.159     0.540   0.253483E-23
     0.159     0.556   0.131372E-24
     0.159     0.571   0.619071E-26
     0.159     0.587   0.264066E-27
     0.159     0.603   0.101414E-28
     0.159     0.619   0.348434E-30
     0.159     0.635   0.106270E-31
     0.159     0.651   0.284988E-33
     0.159     0.667   0.664043E-35
     0.159     0.683   0.132400E-36
     0.159     0.698   0.221384E-38
     0.159     0.714   0.301947E-40
     0.159     0.730   0.322626E-42
     0.159     0.746   0.253280E-44
     0.159     0.762   0.129914E-46
     0.159     0.778   0.326657E-49
     0.159     0.794    0.00000    
     0.159     0.810    0.00000    
     0.159     0.825    0.00000    
     0.159     0.841    0.00000    
     0.159     0.857    0.00000    
     0.159     0.873    0.00000    
     0.159     0.889    0.00000    
     0.159     0.905    0.00000    
     0.159     0.921    0.00000    
     0.159     0.937    0.00000    
     0.159     0.952    0.00000    
     0.159     0.968    0.00000    
     0.159     0.984    0.00000    
     0.159     1.000    0.00000    
     0.175     0.000   0.521435    
     0.175     0.016   0.389682    
     0.175     0.032   0.271453    
     0.175     0.048   0.175417    
     0.175     0.063   0.104801    
     0.175     0.079   0.577570E-01
     0.175     0.095   0.293247E-01
     0.175     0.111   0.137093E-01
     0.175     0.127   0.590139E-02
     0.175     0.143   0.234001E-02
     0.175     0.159   0.855246E-03
     0.175     0.175   0.288358E-03
     0.175     0.190   0.897698E-04
     0.175     0.206   0.258281E-04
     0.175     0.222   0.687412E-05
     0.175     0.238   0.169386E-05
     0.175     0.254   0.386741E-06
     0.175     0.270   0.818741E-07
     0.175     0.286   0.160811E-07
     0.175     0.302   0.293182E-08
     0.175     0.317   0.496322E-09
     0.175     0.333   0.780355E-10
     0.175     0.349   0.113961E-10
     0.175     0.365   0.154573E-11
     0.175     0.381   0.194682E-12
     0.175     0.397   0.227599E-13
     0.175     0.413   0.246844E-14
     0.175     0.429   0.248177E-15
     0.175     0.444   0.231088E-16
     0.175     0.460   0.199051E-17
     0.175     0.476   0.158383E-18
     0.175     0.492   0.116219E-19
     0.175     0.508   0.784887E-21
     0.175     0.524   0.486718E-22
     0.175     0.540   0.276370E-23
     0.175     0.556   0.143233E-24
     0.175     0.571   0.674967E-26
     0.175     0.587   0.287909E-27
     0.175     0.603   0.110571E-28
     0.175     0.619   0.379894E-30
     0.175     0.635   0.115865E-31
     0.175     0.651   0.310719E-33
     0.175     0.667   0.723999E-35
     0.175     0.683   0.144354E-36
     0.175     0.698   0.241372E-38
     0.175     0.714   0.329210E-40
     0.175     0.730   0.351756E-42
     0.175     0.746   0.276149E-44
     0.175     0.762   0.141644E-46
     0.175     0.778   0.356151E-49
     0.175     0.794    0.00000    
     0.175     0.810    0.00000    
     0.175     0.825    0.00000    
     0.175     0.841    0.00000    
     0.175     0.857    0.00000    
     0.175     0.873    0.00000    
     0.175     0.889    0.00000    
     0.175     0.905    0.00000    
     0.175     0.921    0.00000    
     0.175     0.937    0.00000    
     0.175     0.952    0.00000    
     0.175     0.968    0.00000    
     0.175     0.984    0.00000    
     0.175     1.000    0.00000    
     0.190     0.000   0.563320    
     0.190     0.016   0.420984    
     0.190     0.032   0.293257    
     0.190     0.048   0.189508    
     0.190     0.063   0.113219    
     0.190     0.079   0.623964E-01
     0.190     0.095   0.316803E-01
     0.190     0.111   0.148106E-01
     0.190     0.127   0.637543E-02
     0.190     0.143   0.252797E-02
     0.190     0.159   0.923945E-03
     0.190     0.175   0.311520E-03
     0.190     0.190   0.969807E-04
     0.190     0.206   0.279028E-04
     0.190     0.222   0.742629E-05
     0.190     0.238   0.182992E-05
     0.190     0.254   0.417806E-06
     0.190     0.270   0.884507E-07
     0.190     0.286   0.173729E-07
     0.190     0.302   0.316732E-08
     0.190     0.317   0.536190E-09
     0.190     0.333   0.843037E-10
     0.190     0.349   0.123116E-10
     0.190     0.365   0.166990E-11
     0.190     0.381   0.210320E-12
     0.190     0.397   0.245881E-13
     0.190     0.413   0.266672E-14
     0.190     0.429   0.268112E-15
     0.190     0.444   0.249651E-16
     0.190     0.460   0.215040E-17
     0.190     0.476   0.171105E-18
     0.190     0.492   0.125555E-19
     0.190     0.508   0.847934E-21
     0.190     0.524   0.525814E-22
     0.190     0.540   0.298570E-23
     0.190     0.556   0.154739E-24
     0.190     0.571   0.729184E-26
     0.190     0.587   0.311035E-27
     0.190     0.603   0.119453E-28
     0.190     0.619   0.410409E-30
     0.190     0.635   0.125172E-31
     0.190     0.651   0.335678E-33
     0.190     0.667   0.782155E-35
     0.190     0.683   0.155949E-36
     0.190     0.698   0.260761E-38
     0.190     0.714   0.355654E-40
     0.190     0.730   0.380011E-42
     0.190     0.746   0.298331E-44
     0.190     0.762   0.153022E-46
     0.190     0.778   0.384759E-49
     0.190     0.794    0.00000    
     0.190     0.810    0.00000    
     0.190     0.825    0.00000    
     0.190     0.841    0.00000    
     0.190     0.857    0.00000    
     0.190     0.873    0.00000    
     0.190     0.889    0.00000    
     0.190     0.905    0.00000    
     0.190     0.921    0.00000    
     0.190     0.937    0.00000    
     0.190     0.952    0.00000    
     0.190     0.968    0.00000    
     0.190     0.984    0.00000    