Title="Temperature Data"
Variables="X","Y","T"
 
Zone I=   128, J=   128, F=POINT
     0.000     0.000    0.00000    
     0.000     0.008    0.00000    
     0.000     0.016    0.00000    
     0.000     0.024    0.00000    
     0.000     0.031    0.00000    
     0.000     0.039    0.00000    
     0.000     0.047    0.00000    
     0.000     0.055    0.00000    
     0.000     0.063    0.00000    
     0.000     0.071    0.00000    
     0.000     0.079    0.00000    
     0.000     0.087    0.00000    
     0.000     0.094    0.00000    
     0.000     0.102    0.00000    
     0.000     0.110    0.00000    
     0.000     0.118    0.00000    
     0.000     0.126    0.00000    
     0.000     0.134    0.00000    
     0.000     0.142    0.00000    
     0.000     0.150    0.00000    
     0.000     0.157    0.00000    
     0.000     0.165    0.00000    
     0.000     0.173    0.00000    
     0.000     0.181    0.00000    
     0.000     0.189    0.00000    
     0.000     0.197    0.00000    
     0.000     0.205    0.00000    
     0.000     0.213    0.00000    
     0.000     0.220    0.00000    
     0.000     0.228    0.00000    
     0.000     0.236    0.00000    
     0.000     0.244    0.00000    
     0.000     0.252    0.00000    
     0.000     0.260    0.00000    
     0.000     0.268    0.00000    
     0.000     0.276    0.00000    
     0.000     0.283    0.00000    
     0.000     0.291    0.00000    
     0.000     0.299    0.00000    
     0.000     0.307    0.00000    
     0.000     0.315    0.00000    
     0.000     0.323    0.00000    
     0.000     0.331    0.00000    
     0.000     0.339    0.00000    
     0.000     0.346    0.00000    
     0.000     0.354    0.00000    
     0.000     0.362    0.00000    
     0.000     0.370    0.00000    
     0.000     0.378    0.00000    
     0.000     0.386    0.00000    
     0.000     0.394    0.00000    
     0.000     0.402    0.00000    
     0.000     0.409    0.00000    
     0.000     0.417    0.00000    
     0.000     0.425    0.00000    
     0.000     0.433    0.00000    
     0.000     0.441    0.00000    
     0.000     0.449    0.00000    
     0.000     0.457    0.00000    
     0.000     0.465    0.00000    
     0.000     0.472    0.00000    
     0.000     0.480    0.00000    
     0.000     0.488    0.00000    
     0.000     0.496    0.00000    
     0.000     0.504    0.00000    
     0.000     0.512    0.00000    
     0.000     0.520    0.00000    
     0.000     0.528    0.00000    
     0.000     0.535    0.00000    
     0.000     0.543    0.00000    
     0.000     0.551    0.00000    
     0.000     0.559    0.00000    
     0.000     0.567    0.00000    
     0.000     0.575    0.00000    
     0.000     0.583    0.00000    
     0.000     0.591    0.00000    
     0.000     0.598    0.00000    
     0.000     0.606    0.00000    
     0.000     0.614    0.00000    
     0.000     0.622    0.00000    
     0.000     0.630    0.00000    
     0.000     0.638    0.00000    
     0.000     0.646    0.00000    
     0.000     0.654    0.00000    
     0.000     0.661    0.00000    
     0.000     0.669    0.00000    
     0.000     0.677    0.00000    
     0.000     0.685    0.00000    
     0.000     0.693    0.00000    
     0.000     0.701    0.00000    
     0.000     0.709    0.00000    
     0.000     0.717    0.00000    
     0.000     0.724    0.00000    
     0.000     0.732    0.00000    
     0.000     0.740    0.00000    
     0.000     0.748    0.00000    
     0.000     0.756    0.00000    
     0.000     0.764    0.00000    
     0.000     0.772    0.00000    
     0.000     0.780    0.00000    
     0.000     0.787    0.00000    
     0.000     0.795    0.00000    
     0.000     0.803    0.00000    
     0.000     0.811    0.00000    
     0.000     0.819    0.00000    
     0.000     0.827    0.00000    
     0.000     0.835    0.00000    
     0.000     0.843    0.00000    
     0.000     0.850    0.00000    
     0.000     0.858    0.00000    
     0.000     0.866    0.00000    
     0.000     0.874    0.00000    
     0.000     0.882    0.00000    
     0.000     0.890    0.00000    
     0.000     0.898    0.00000    
     0.000     0.906    0.00000    
     0.000     0.913    0.00000    
     0.000     0.921    0.00000    
     0.000     0.929    0.00000    
     0.000     0.937    0.00000    
     0.000     0.945    0.00000    
     0.000     0.953    0.00000    
     0.000     0.961    0.00000    
     0.000     0.969    0.00000    
     0.000     0.976    0.00000    
     0.000     0.984    0.00000    
     0.000     0.992    0.00000    
     0.000     1.000    0.00000    
     0.008     0.000   0.247344E-01
     0.008     0.008   0.241056E-01
     0.008     0.016   0.234916E-01
     0.008     0.024   0.228919E-01
     0.008     0.031   0.223064E-01
     0.008     0.039   0.217347E-01
     0.008     0.047   0.211764E-01
     0.008     0.055   0.206312E-01
     0.008     0.063   0.200989E-01
     0.008     0.071   0.195790E-01
     0.008     0.079   0.190715E-01
     0.008     0.087   0.185758E-01
     0.008     0.094   0.180919E-01
     0.008     0.102   0.176194E-01
     0.008     0.110   0.171581E-01
     0.008     0.118   0.167076E-01
     0.008     0.126   0.162678E-01
     0.008     0.134   0.158384E-01
     0.008     0.142   0.154192E-01
     0.008     0.150   0.150098E-01
     0.008     0.157   0.146103E-01
     0.008     0.165   0.142202E-01
     0.008     0.173   0.138395E-01
     0.008     0.181   0.134677E-01
     0.008     0.189   0.131049E-01
     0.008     0.197   0.127506E-01
     0.008     0.205   0.124050E-01
     0.008     0.213   0.120675E-01
     0.008     0.220   0.117383E-01
     0.008     0.228   0.114168E-01
     0.008     0.236   0.111032E-01
     0.008     0.244   0.107970E-01
     0.008     0.252   0.104984E-01
     0.008     0.260   0.102069E-01
     0.008     0.268   0.992258E-02
     0.008     0.276   0.964503E-02
     0.008     0.283   0.937444E-02
     0.008     0.291   0.911027E-02
     0.008     0.299   0.885277E-02
     0.008     0.307   0.860139E-02
     0.008     0.315   0.835641E-02
     0.008     0.323   0.811726E-02
     0.008     0.331   0.788425E-02
     0.008     0.339   0.765680E-02
     0.008     0.346   0.743524E-02
     0.008     0.354   0.721898E-02
     0.008     0.362   0.700835E-02
     0.008     0.370   0.680278E-02
     0.008     0.378   0.660262E-02
     0.008     0.386   0.640728E-02
     0.008     0.394   0.621711E-02
     0.008     0.402   0.603155E-02
     0.008     0.409   0.585094E-02
     0.008     0.417   0.567471E-02
     0.008     0.425   0.550323E-02
     0.008     0.433   0.533593E-02
     0.008     0.441   0.517318E-02
     0.008     0.449   0.501440E-02
     0.008     0.457   0.485998E-02
     0.008     0.465   0.470935E-02
     0.008     0.472   0.456288E-02
     0.008     0.480   0.442002E-02
     0.008     0.488   0.428114E-02
     0.008     0.496   0.414569E-02
     0.008     0.504   0.401406E-02
     0.008     0.512   0.388568E-02
     0.008     0.520   0.376095E-02
     0.008     0.528   0.363932E-02
     0.008     0.535   0.352117E-02
     0.008     0.543   0.340595E-02
     0.008     0.551   0.329407E-02
     0.008     0.559   0.318497E-02
     0.008     0.567   0.307904E-02
     0.008     0.575   0.297576E-02
     0.008     0.583   0.287550E-02
     0.008     0.591   0.277775E-02
     0.008     0.598   0.268287E-02
     0.008     0.606   0.259037E-02
     0.008     0.614   0.250060E-02
     0.008     0.622   0.241307E-02
     0.008     0.630   0.232815E-02
     0.008     0.638   0.224534E-02
     0.008     0.646   0.216500E-02
     0.008     0.654   0.208665E-02
     0.008     0.661   0.201064E-02
     0.008     0.669   0.193652E-02
     0.008     0.677   0.186460E-02
     0.008     0.685   0.179445E-02
     0.008     0.693   0.172639E-02
     0.008     0.701   0.165998E-02
     0.008     0.709   0.159554E-02
     0.008     0.717   0.153266E-02
     0.008     0.724   0.147162E-02
     0.008     0.732   0.141203E-02
     0.008     0.740   0.135417E-02
     0.008     0.748   0.129767E-02
     0.008     0.756   0.124278E-02
     0.008     0.764   0.118915E-02
     0.008     0.772   0.113702E-02
     0.008     0.780   0.108606E-02
     0.008     0.787   0.103649E-02
     0.008     0.795   0.987995E-03
     0.008     0.803   0.940785E-03
     0.008     0.811   0.894564E-03
     0.008     0.819   0.849520E-03
     0.008     0.827   0.805377E-03
     0.008     0.835   0.762309E-03
     0.008     0.843   0.720057E-03
     0.008     0.850   0.678776E-03
     0.008     0.858   0.638229E-03
     0.008     0.866   0.598553E-03
     0.008     0.874   0.559528E-03
     0.008     0.882   0.521274E-03
     0.008     0.890   0.483593E-03
     0.008     0.898   0.446582E-03
     0.008     0.906   0.410066E-03
     0.008     0.913   0.374123E-03
     0.008     0.921   0.338596E-03
     0.008     0.929   0.303546E-03
     0.008     0.937   0.268834E-03
     0.008     0.945   0.234504E-03
     0.008     0.953   0.200436E-03
     0.008     0.961   0.166654E-03
     0.008     0.969   0.133058E-03
     0.008     0.976   0.996527E-04
     0.008     0.984   0.663595E-04
     0.008     0.992   0.331610E-04
     0.008     1.000    0.00000    
     0.016     0.000   0.494537E-01
     0.016     0.008   0.481965E-01
     0.016     0.016   0.469687E-01
     0.016     0.024   0.457699E-01
     0.016     0.031   0.445992E-01
     0.016     0.039   0.434561E-01
     0.016     0.047   0.423398E-01
     0.016     0.055   0.412498E-01
     0.016     0.063   0.401854E-01
     0.016     0.071   0.391461E-01
     0.016     0.079   0.381312E-01
     0.016     0.087   0.371404E-01
     0.016     0.094   0.361727E-01
     0.016     0.102   0.352281E-01
     0.016     0.110   0.343056E-01
     0.016     0.118   0.334050E-01
     0.016     0.126   0.325256E-01
     0.016     0.134   0.316672E-01
     0.016     0.142   0.308288E-01
     0.016     0.150   0.300106E-01
     0.016     0.157   0.292116E-01
     0.016     0.165   0.284318E-01
     0.016     0.173   0.276703E-01
     0.016     0.181   0.269273E-01
     0.016     0.189   0.262016E-01
     0.016     0.197   0.254936E-01
     0.016     0.205   0.248023E-01
     0.016     0.213   0.241278E-01
     0.016     0.220   0.234692E-01
     0.016     0.228   0.228267E-01
     0.016     0.236   0.221994E-01
     0.016     0.244   0.215876E-01
     0.016     0.252   0.209902E-01
     0.016     0.260   0.204077E-01
     0.016     0.268   0.198389E-01
     0.016     0.276   0.192843E-01
     0.016     0.283   0.187429E-01
     0.016     0.291   0.182152E-01
     0.016     0.299   0.176999E-01
     0.016     0.307   0.171977E-01
     0.016     0.315   0.167075E-01
     0.016     0.323   0.162298E-01
     0.016     0.331   0.157635E-01
     0.016     0.339   0.153091E-01
     0.016     0.346   0.148657E-01
     0.016     0.354   0.144338E-01
     0.016     0.362   0.140122E-01
     0.016     0.370   0.136016E-01
     0.016     0.378   0.132010E-01
     0.016     0.386   0.128109E-01
     0.016     0.394   0.124302E-01
     0.016     0.402   0.120596E-01
     0.016     0.409   0.116981E-01
     0.016     0.417   0.113462E-01
     0.016     0.425   0.110029E-01
     0.016     0.433   0.106688E-01
     0.016     0.441   0.103430E-01
     0.016     0.449   0.100260E-01
     0.016     0.457   0.971675E-02
     0.016     0.465   0.941605E-02
     0.016     0.472   0.912273E-02
     0.016     0.480   0.883757E-02
     0.016     0.488   0.855943E-02
     0.016     0.496   0.828908E-02
     0.016     0.504   0.802543E-02
     0.016     0.512   0.776922E-02
     0.016     0.520   0.751937E-02
     0.016     0.528   0.727664E-02
     0.016     0.535   0.703995E-02
     0.016     0.543   0.681005E-02
     0.016     0.551   0.658589E-02
     0.016     0.559   0.636822E-02
     0.016     0.567   0.615598E-02
     0.016     0.575   0.594992E-02
     0.016     0.583   0.574902E-02
     0.016     0.591   0.555401E-02
     0.016     0.598   0.536388E-02
     0.016     0.606   0.517936E-02
     0.016     0.614   0.499945E-02
     0.016     0.622   0.482488E-02
     0.016     0.630   0.465466E-02
     0.016     0.638   0.448951E-02
     0.016     0.646   0.432847E-02
     0.016     0.654   0.417223E-02
     0.016     0.661   0.401987E-02
     0.016     0.669   0.387204E-02
     0.016     0.677   0.372787E-02
     0.016     0.685   0.358799E-02
     0.016     0.693   0.345154E-02
     0.016     0.701   0.331913E-02
     0.016     0.709   0.318994E-02
     0.016     0.717   0.306455E-02
     0.016     0.724   0.294217E-02
     0.016     0.732   0.282336E-02
     0.016     0.740   0.270736E-02
     0.016     0.748   0.259469E-02
     0.016     0.756   0.248465E-02
     0.016     0.764   0.237771E-02
     0.016     0.772   0.227320E-02
     0.016     0.780   0.217159E-02
     0.016     0.787   0.207221E-02
     0.016     0.795   0.197551E-02
     0.016     0.803   0.188087E-02
     0.016     0.811   0.178870E-02
     0.016     0.819   0.169841E-02
     0.016     0.827   0.161037E-02
     0.016     0.835   0.152405E-02
     0.016     0.843   0.143977E-02
     0.016     0.850   0.135704E-02
     0.016     0.858   0.127616E-02
     0.016     0.866   0.119666E-02
     0.016     0.874   0.111879E-02
     0.016     0.882   0.104216E-02
     0.016     0.890   0.966959E-03
     0.016     0.898   0.892827E-03
     0.016     0.906   0.819940E-03
     0.016     0.913   0.747962E-03
     0.016     0.921   0.677034E-03
     0.016     0.929   0.606860E-03
     0.016     0.937   0.537544E-03
     0.016     0.945   0.468829E-03
     0.016     0.953   0.400780E-03
     0.016     0.961   0.333180E-03
     0.016     0.969   0.266055E-03
     0.016     0.976   0.199229E-03
     0.016     0.984   0.132688E-03
     0.016     0.992   0.662968E-04
     0.016     1.000    0.00000    
     0.024     0.000   0.741428E-01
     0.024     0.008   0.722578E-01
     0.024     0.016   0.704172E-01
     0.024     0.024   0.686198E-01
     0.024     0.031   0.668647E-01
     0.024     0.039   0.651508E-01
     0.024     0.047   0.634773E-01
     0.024     0.055   0.618431E-01
     0.024     0.063   0.602474E-01
     0.024     0.071   0.586892E-01
     0.024     0.079   0.571678E-01
     0.024     0.087   0.556821E-01
     0.024     0.094   0.542316E-01
     0.024     0.102   0.528151E-01
     0.024     0.110   0.514323E-01
     0.024     0.118   0.500818E-01
     0.024     0.126   0.487637E-01
     0.024     0.134   0.474763E-01
     0.024     0.142   0.462199E-01
     0.024     0.150   0.449928E-01
     0.024     0.157   0.437953E-01
     0.024     0.165   0.426258E-01
     0.024     0.173   0.414845E-01
     0.024     0.181   0.403701E-01
     0.024     0.189   0.392826E-01
     0.024     0.197   0.382207E-01
     0.024     0.205   0.371846E-01
     0.024     0.213   0.361730E-01
     0.024     0.220   0.351860E-01
     0.024     0.228   0.342223E-01
     0.024     0.236   0.332824E-01
     0.024     0.244   0.323646E-01
     0.024     0.252   0.314695E-01
     0.024     0.260   0.305956E-01
     0.024     0.268   0.297435E-01
     0.024     0.276   0.289115E-01
     0.024     0.283   0.281004E-01
     0.024     0.291   0.273085E-01
     0.024     0.299   0.265366E-01
     0.024     0.307   0.257831E-01
     0.024     0.315   0.250488E-01
     0.024     0.323   0.243319E-01
     0.024     0.331   0.236335E-01
     0.024     0.339   0.229517E-01
     0.024     0.346   0.222875E-01
     0.024     0.354   0.216393E-01
     0.024     0.362   0.210079E-01
     0.024     0.370   0.203917E-01
     0.024     0.378   0.197917E-01
     0.024     0.386   0.192062E-01
     0.024     0.394   0.186361E-01
     0.024     0.402   0.180799E-01
     0.024     0.409   0.175385E-01
     0.024     0.417   0.170102E-01
     0.024     0.425   0.164962E-01
     0.024     0.433   0.159947E-01
     0.024     0.441   0.155069E-01
     0.024     0.449   0.150309E-01
     0.024     0.457   0.145681E-01
     0.024     0.465   0.141165E-01
     0.024     0.472   0.136775E-01
     0.024     0.480   0.132492E-01
     0.024     0.488   0.128329E-01
     0.024     0.496   0.124269E-01
     0.024     0.504   0.120324E-01
     0.024     0.512   0.116475E-01
     0.024     0.520   0.112737E-01
     0.024     0.528   0.109090E-01
     0.024     0.535   0.105549E-01
     0.024     0.543   0.102095E-01
     0.024     0.551   0.987414E-02
     0.024     0.559   0.954711E-02
     0.024     0.567   0.922959E-02
     0.024     0.575   0.892000E-02
     0.024     0.583   0.861946E-02
     0.024     0.591   0.832644E-02
     0.024     0.598   0.804204E-02
     0.024     0.606   0.776476E-02
     0.024     0.614   0.749567E-02
     0.024     0.622   0.723331E-02
     0.024     0.630   0.697874E-02
     0.024     0.638   0.673052E-02
     0.024     0.646   0.648969E-02
     0.024     0.654   0.625486E-02
     0.024     0.661   0.602701E-02
     0.024     0.669   0.580482E-02
     0.024     0.677   0.558923E-02
     0.024     0.685   0.537896E-02
     0.024     0.693   0.517493E-02
     0.024     0.701   0.497589E-02
     0.024     0.709   0.478272E-02
     0.024     0.717   0.459422E-02
     0.024     0.724   0.441125E-02
     0.024     0.732   0.423264E-02
     0.024     0.740   0.405920E-02
     0.024     0.748   0.388983E-02
     0.024     0.756   0.372529E-02
     0.024     0.764   0.356453E-02
     0.024     0.772   0.340828E-02
     0.024     0.780   0.325552E-02
     0.024     0.787   0.310693E-02
     0.024     0.795   0.296157E-02
     0.024     0.803   0.282005E-02
     0.024     0.811   0.268150E-02
     0.024     0.819   0.254648E-02
     0.024     0.827   0.241416E-02
     0.024     0.835   0.228506E-02
     0.024     0.843   0.215841E-02
     0.024     0.850   0.203467E-02
     0.024     0.858   0.191313E-02
     0.024     0.866   0.179419E-02
     0.024     0.874   0.167722E-02
     0.024     0.882   0.156255E-02
     0.024     0.890   0.144959E-02
     0.024     0.898   0.133865E-02
     0.024     0.906   0.122919E-02
     0.024     0.913   0.112145E-02
     0.024     0.921   0.101496E-02
     0.024     0.929   0.909894E-03
     0.024     0.937   0.805845E-03
     0.024     0.945   0.702938E-03
     0.024     0.953   0.600818E-03
     0.024     0.961   0.499553E-03
     0.024     0.969   0.398849E-03
     0.024     0.976   0.298714E-03
     0.024     0.984   0.198916E-03
     0.024     0.992   0.994020E-04
     0.024     1.000    0.00000    
     0.031     0.000   0.987864E-01
     0.031     0.008   0.962750E-01
     0.031     0.016   0.938225E-01
     0.031     0.024   0.914278E-01
     0.031     0.031   0.890892E-01
     0.031     0.039   0.868058E-01
     0.031     0.047   0.845759E-01
     0.031     0.055   0.823986E-01
     0.031     0.063   0.802724E-01
     0.031     0.071   0.781965E-01
     0.031     0.079   0.761692E-01
     0.031     0.087   0.741899E-01
     0.031     0.094   0.722570E-01
     0.031     0.102   0.703700E-01
     0.031     0.110   0.685272E-01
     0.031     0.118   0.667283E-01
     0.031     0.126   0.649716E-01
     0.031     0.134   0.632568E-01
     0.031     0.142   0.615822E-01
     0.031     0.150   0.599478E-01
     0.031     0.157   0.583517E-01
     0.031     0.165   0.567941E-01
     0.031     0.173   0.552730E-01
     0.031     0.181   0.537886E-01
     0.031     0.189   0.523391E-01
     0.031     0.197   0.509248E-01
     0.031     0.205   0.495438E-01
     0.031     0.213   0.481965E-01
     0.031     0.220   0.468809E-01
     0.031     0.228   0.455976E-01
     0.031     0.236   0.443445E-01
     0.031     0.244   0.431223E-01
     0.031     0.252   0.419290E-01
     0.031     0.260   0.407654E-01
     0.031     0.268   0.396292E-01
     0.031     0.276   0.385215E-01
     0.031     0.283   0.374400E-01
     0.031     0.291   0.363857E-01
     0.031     0.299   0.353565E-01
     0.031     0.307   0.343534E-01
     0.031     0.315   0.333741E-01
     0.031     0.323   0.324198E-01
     0.031     0.331   0.314883E-01
     0.031     0.339   0.305808E-01
     0.031     0.346   0.296950E-01
     0.031     0.354   0.288322E-01
     0.031     0.362   0.279901E-01
     0.031     0.370   0.271700E-01
     0.031     0.378   0.263696E-01
     0.031     0.386   0.255904E-01
     0.031     0.394   0.248300E-01
     0.031     0.402   0.240898E-01
     0.031     0.409   0.233675E-01
     0.031     0.417   0.226646E-01
     0.031     0.425   0.219788E-01
     0.031     0.433   0.213116E-01
     0.031     0.441   0.206606E-01
     0.031     0.449   0.200274E-01
     0.031     0.457   0.194097E-01
     0.031     0.465   0.188091E-01
     0.031     0.472   0.182231E-01
     0.031     0.480   0.176535E-01
     0.031     0.488   0.170979E-01
     0.031     0.496   0.165579E-01
     0.031     0.504   0.160312E-01
     0.031     0.512   0.155194E-01
     0.031     0.520   0.150203E-01
     0.031     0.528   0.145355E-01
     0.031     0.535   0.140627E-01
     0.031     0.543   0.136034E-01
     0.031     0.551   0.131557E-01
     0.031     0.559   0.127208E-01
     0.031     0.567   0.122969E-01
     0.031     0.575   0.118853E-01
     0.031     0.583   0.114840E-01
     0.031     0.591   0.110944E-01
     0.031     0.598   0.107146E-01
     0.031     0.606   0.103460E-01
     0.031     0.614   0.998667E-02
     0.031     0.622   0.963795E-02
     0.031     0.630   0.929794E-02
     0.031     0.638   0.896803E-02
     0.031     0.646   0.864635E-02
     0.031     0.654   0.833424E-02
     0.031     0.661   0.802989E-02
     0.031     0.669   0.773461E-02
     0.031     0.677   0.744662E-02
     0.031     0.685   0.716719E-02
     0.031     0.693   0.689463E-02
     0.031     0.701   0.663013E-02
     0.031     0.709   0.637206E-02
     0.031     0.717   0.612159E-02
     0.031     0.724   0.587714E-02
     0.031     0.732   0.563980E-02
     0.031     0.740   0.540809E-02
     0.031     0.748   0.518304E-02
     0.031     0.756   0.496321E-02
     0.031     0.764   0.474960E-02
     0.031     0.772   0.454085E-02
     0.031     0.780   0.433786E-02
     0.031     0.787   0.413935E-02
     0.031     0.795   0.394619E-02
     0.031     0.803   0.375714E-02
     0.031     0.811   0.357302E-02
     0.031     0.819   0.339266E-02
     0.031     0.827   0.321680E-02
     0.031     0.835   0.304437E-02
     0.031     0.843   0.287602E-02
     0.031     0.850   0.271077E-02
     0.031     0.858   0.254919E-02
     0.031     0.866   0.239038E-02
     0.031     0.874   0.223485E-02
     0.031     0.882   0.208176E-02
     0.031     0.890   0.193155E-02
     0.031     0.898   0.178347E-02
     0.031     0.906   0.163787E-02
     0.031     0.913   0.149409E-02
     0.031     0.921   0.135241E-02
     0.031     0.929   0.121224E-02
     0.031     0.937   0.107377E-02
     0.031     0.945   0.936511E-03
     0.031     0.953   0.800579E-03
     0.031     0.961   0.665545E-03
     0.031     0.969   0.531459E-03
     0.031     0.976   0.397971E-03
     0.031     0.984   0.265052E-03
     0.031     0.992   0.132431E-03
     0.031     1.000    0.00000    
     0.039     0.000   0.123370    
     0.039     0.008   0.120233    
     0.039     0.016   0.117170    
     0.039     0.024   0.114180    
     0.039     0.031   0.111259    
     0.039     0.039   0.108408    
     0.039     0.047   0.105623    
     0.039     0.055   0.102904    
     0.039     0.063   0.100249    
     0.039     0.071   0.976557E-01
     0.039     0.079   0.951242E-01
     0.039     0.087   0.926520E-01
     0.039     0.094   0.902385E-01
     0.039     0.102   0.878815E-01
     0.039     0.110   0.855806E-01
     0.039     0.118   0.833336E-01
     0.039     0.126   0.811402E-01
     0.039     0.134   0.789981E-01
     0.039     0.142   0.769074E-01
     0.039     0.150   0.748657E-01
     0.039     0.157   0.728730E-01
     0.039     0.165   0.709271E-01
     0.039     0.173   0.690281E-01
     0.039     0.181   0.671737E-01
     0.039     0.189   0.653642E-01
     0.039     0.197   0.635972E-01
     0.039     0.205   0.618733E-01
     0.039     0.213   0.601899E-01
     0.039     0.220   0.585477E-01
     0.039     0.228   0.569442E-01
     0.039     0.236   0.553801E-01
     0.039     0.244   0.538530E-01
     0.039     0.252   0.523636E-01
     0.039     0.260   0.509095E-01
     0.039     0.268   0.494915E-01
     0.039     0.276   0.481072E-01
     0.039     0.283   0.467575E-01
     0.039     0.291   0.454399E-01
     0.039     0.299   0.441556E-01
     0.039     0.307   0.429017E-01
     0.039     0.315   0.416798E-01
     0.039     0.323   0.404870E-01
     0.039     0.331   0.393248E-01
     0.039     0.339   0.381904E-01
     0.039     0.346   0.370852E-01
     0.039     0.354   0.360066E-01
     0.039     0.362   0.349560E-01
     0.039     0.370   0.339307E-01
     0.039     0.378   0.329323E-01
     0.039     0.386   0.319580E-01
     0.039     0.394   0.310095E-01
     0.039     0.402   0.300840E-01
     0.039     0.409   0.291831E-01
     0.039     0.417   0.283042E-01
     0.039     0.425   0.274489E-01
     0.039     0.433   0.266144E-01
     0.039     0.441   0.258026E-01
     0.039     0.449   0.250107E-01
     0.039     0.457   0.242405E-01
     0.039     0.465   0.234891E-01
     0.039     0.472   0.227586E-01
     0.039     0.480   0.220460E-01
     0.039     0.488   0.213533E-01
     0.039     0.496   0.206778E-01
     0.039     0.504   0.200212E-01
     0.039     0.512   0.193809E-01
     0.039     0.520   0.187588E-01
     0.039     0.528   0.181521E-01
     0.039     0.535   0.175628E-01
     0.039     0.543   0.169881E-01
     0.039     0.551   0.164300E-01
     0.039     0.559   0.158859E-01
     0.039     0.567   0.153576E-01
     0.039     0.575   0.148424E-01
     0.039     0.583   0.143423E-01
     0.039     0.591   0.138548E-01
     0.039     0.598   0.133815E-01
     0.039     0.606   0.129202E-01
     0.039     0.614   0.124724E-01
     0.039     0.622   0.120359E-01
     0.039     0.630   0.116123E-01
     0.039     0.638   0.111992E-01
     0.039     0.646   0.107985E-01
     0.039     0.654   0.104078E-01
     0.039     0.661   0.100286E-01
     0.039     0.669   0.965891E-02
     0.039     0.677   0.930019E-02
     0.039     0.685   0.895031E-02
     0.039     0.693   0.861082E-02
     0.039     0.701   0.827962E-02
     0.039     0.709   0.795819E-02
     0.039     0.717   0.764454E-02
     0.039     0.724   0.734008E-02
     0.039     0.732   0.704288E-02
     0.039     0.740   0.675429E-02
     0.039     0.748   0.647247E-02
     0.039     0.756   0.619869E-02
     0.039     0.764   0.593120E-02
     0.039     0.772   0.567119E-02
     0.039     0.780   0.541701E-02
     0.039     0.787   0.516977E-02
     0.039     0.795   0.492789E-02
     0.039     0.803   0.469242E-02
     0.039     0.811   0.446188E-02
     0.039     0.819   0.423721E-02
     0.039     0.827   0.401704E-02
     0.039     0.835   0.380222E-02
     0.039     0.843   0.359148E-02
     0.039     0.850   0.338558E-02
     0.039     0.858   0.318334E-02
     0.039     0.866   0.298544E-02
     0.039     0.874   0.279080E-02
     0.039     0.882   0.260000E-02
     0.039     0.890   0.241205E-02
     0.039     0.898   0.222745E-02
     0.039     0.906   0.204531E-02
     0.039     0.913   0.186604E-02
     0.039     0.921   0.168884E-02
     0.039     0.929   0.151402E-02
     0.039     0.937   0.134088E-02
     0.039     0.945   0.116965E-02
     0.039     0.953   0.999729E-03
     0.039     0.961   0.831229E-03
     0.039     0.969   0.663664E-03
     0.039     0.976   0.497045E-03
     0.039     0.984   0.330986E-03
     0.039     0.992   0.165400E-03
     0.039     1.000    0.00000    
     0.047     0.000   0.147877    
     0.047     0.008   0.144118    
     0.047     0.016   0.140447    
     0.047     0.024   0.136862    
     0.047     0.031   0.133361    
     0.047     0.039   0.129943    
     0.047     0.047   0.126605    
     0.047     0.055   0.123346    
     0.047     0.063   0.120163    
     0.047     0.071   0.117055    
     0.047     0.079   0.114021    
     0.047     0.087   0.111058    
     0.047     0.094   0.108164    
     0.047     0.102   0.105340    
     0.047     0.110   0.102581    
     0.047     0.118   0.998883E-01
     0.047     0.126   0.972586E-01
     0.047     0.134   0.946917E-01
     0.047     0.142   0.921849E-01
     0.047     0.150   0.897383E-01
     0.047     0.157   0.873491E-01
     0.047     0.165   0.850173E-01
     0.047     0.173   0.827403E-01
     0.047     0.181   0.805183E-01
     0.047     0.189   0.783485E-01
     0.047     0.197   0.762315E-01
     0.047     0.205   0.741641E-01
     0.047     0.213   0.721473E-01
     0.047     0.220   0.701779E-01
     0.047     0.228   0.682568E-01
     0.047     0.236   0.663810E-01
     0.047     0.244   0.645516E-01
     0.047     0.252   0.627653E-01
     0.047     0.260   0.610233E-01
     0.047     0.268   0.593226E-01
     0.047     0.276   0.576644E-01
     0.047     0.283   0.560455E-01
     0.047     0.291   0.544673E-01
     0.047     0.299   0.529266E-01
     0.047     0.307   0.514249E-01
     0.047     0.315   0.499590E-01
     0.047     0.323   0.485306E-01
     0.047     0.331   0.471362E-01
     0.047     0.339   0.457777E-01
     0.047     0.346   0.444517E-01
     0.047     0.354   0.431601E-01
     0.047     0.362   0.418995E-01
     0.047     0.370   0.406718E-01
     0.047     0.378   0.394738E-01
     0.047     0.386   0.383073E-01
     0.047     0.394   0.371690E-01
     0.047     0.402   0.360609E-01
     0.047     0.409   0.349797E-01
     0.047     0.417   0.339276E-01
     0.047     0.425   0.329010E-01
     0.047     0.433   0.319021E-01
     0.047     0.441   0.309277E-01
     0.047     0.449   0.299798E-01
     0.047     0.457   0.290552E-01
     0.047     0.465   0.281560E-01
     0.047     0.472   0.272789E-01
     0.047     0.480   0.264262E-01
     0.047     0.488   0.255945E-01