Title="Temperature Data"
Variables="X","Y","T"
 
Zone I=    64, J=    64, F=POINT
     0.000     0.000    0.00000    
     0.000     0.016    0.00000    
     0.000     0.032    0.00000    
     0.000     0.048    0.00000    
     0.000     0.063    0.00000    
     0.000     0.079    0.00000    
     0.000     0.095    0.00000    
     0.000     0.111    0.00000    
     0.000     0.127    0.00000    
     0.000     0.143    0.00000    
     0.000     0.159    0.00000    
     0.000     0.175    0.00000    
     0.000     0.190    0.00000    
     0.000     0.206    0.00000    
     0.000     0.222    0.00000    
     0.000     0.238    0.00000    
     0.000     0.254    0.00000    
     0.000     0.270    0.00000    
     0.000     0.286    0.00000    
     0.000     0.302    0.00000    
     0.000     0.317    0.00000    
     0.000     0.333    0.00000    
     0.000     0.349    0.00000    
     0.000     0.365    0.00000    
     0.000     0.381    0.00000    
     0.000     0.397    0.00000    
     0.000     0.413    0.00000    
     0.000     0.429    0.00000    
     0.000     0.444    0.00000    
     0.000     0.460    0.00000    
     0.000     0.476    0.00000    
     0.000     0.492    0.00000    
     0.000     0.508    0.00000    
     0.000     0.524    0.00000    
     0.000     0.540    0.00000    
     0.000     0.556    0.00000    
     0.000     0.571    0.00000    
     0.000     0.587    0.00000    
     0.000     0.603    0.00000    
     0.000     0.619    0.00000    
     0.000     0.635    0.00000    
     0.000     0.651    0.00000    
     0.000     0.667    0.00000    
     0.000     0.683    0.00000    
     0.000     0.698    0.00000    
     0.000     0.714    0.00000    
     0.000     0.730    0.00000    
     0.000     0.746    0.00000    
     0.000     0.762    0.00000    
     0.000     0.778    0.00000    
     0.000     0.794    0.00000    
     0.000     0.810    0.00000    
     0.000     0.825    0.00000    
     0.000     0.841    0.00000    
     0.000     0.857    0.00000    
     0.000     0.873    0.00000    
     0.000     0.889    0.00000    
     0.000     0.905    0.00000    
     0.000     0.921    0.00000    
     0.000     0.937    0.00000    
     0.000     0.952    0.00000    
     0.000     0.968    0.00000    
     0.000     0.984    0.00000    
     0.000     1.000    0.00000    
     0.016     0.000   0.498459E-01
     0.016     0.016   0.391270E-01
     0.016     0.032   0.292361E-01
     0.016     0.048   0.207273E-01
     0.016     0.063   0.139072E-01
     0.016     0.079   0.881382E-02
     0.016     0.095   0.526873E-02
     0.016     0.111   0.296789E-02
     0.016     0.127   0.157447E-02
     0.016     0.143   0.786390E-03
     0.016     0.159   0.369776E-03
     0.016     0.175   0.163717E-03
     0.016     0.190   0.682689E-04
     0.016     0.206   0.268218E-04
     0.016     0.222   0.993318E-05
     0.016     0.238   0.346927E-05
     0.016     0.254   0.114332E-05
     0.016     0.270   0.355724E-06
     0.016     0.286   0.104545E-06
     0.016     0.302   0.290385E-07
     0.016     0.317   0.762675E-08
     0.016     0.333   0.189500E-08
     0.016     0.349   0.445634E-09
     0.016     0.365   0.992254E-10
     0.016     0.381   0.209269E-10
     0.016     0.397   0.418183E-11
     0.016     0.413   0.792008E-12
     0.016     0.429   0.142199E-12
     0.016     0.444   0.242074E-13
     0.016     0.460   0.390790E-14
     0.016     0.476   0.598299E-15
     0.016     0.492   0.868730E-16
     0.016     0.508   0.119628E-16
     0.016     0.524   0.156215E-17
     0.016     0.540   0.193418E-18
     0.016     0.556   0.227019E-19
     0.016     0.571   0.252523E-20
     0.016     0.587   0.266114E-21
     0.016     0.603   0.265573E-22
     0.016     0.619   0.250862E-23
     0.016     0.635   0.224168E-24
     0.016     0.651   0.189373E-25
     0.016     0.667   0.151127E-26
     0.016     0.683   0.113834E-27
     0.016     0.698   0.808522E-29
     0.016     0.714   0.540917E-30
     0.016     0.730   0.340455E-31
     0.016     0.746   0.201319E-32
     0.016     0.762   0.111671E-33
     0.016     0.778   0.580063E-35
     0.016     0.794   0.281612E-36
     0.016     0.810   0.127504E-37
     0.016     0.825   0.537058E-39
     0.016     0.841   0.209863E-40
     0.016     0.857   0.758383E-42
     0.016     0.873   0.252526E-43
     0.016     0.889   0.771563E-45
     0.016     0.905   0.215269E-46
     0.016     0.921   0.545349E-48
     0.016     0.937   0.124604E-49
     0.016     0.952   0.254715E-51
     0.016     0.968   0.461302E-53
     0.016     0.984   0.731072E-55
     0.016     1.000    0.00000    
     0.032     0.000   0.995678E-01
     0.032     0.016   0.781568E-01
     0.032     0.032   0.583994E-01
     0.032     0.048   0.414031E-01
     0.032     0.063   0.277798E-01
     0.032     0.079   0.176057E-01
     0.032     0.095   0.105244E-01
     0.032     0.111   0.592839E-02
     0.032     0.127   0.314502E-02
     0.032     0.143   0.157082E-02
     0.032     0.159   0.738633E-03
     0.032     0.175   0.327027E-03
     0.032     0.190   0.136368E-03
     0.032     0.206   0.535770E-04
     0.032     0.222   0.198417E-04
     0.032     0.238   0.692992E-05
     0.032     0.254   0.228380E-05
     0.032     0.270   0.710563E-06
     0.032     0.286   0.208831E-06
     0.032     0.302   0.580048E-07
     0.032     0.317   0.152345E-07
     0.032     0.333   0.378529E-08
     0.032     0.349   0.890159E-09
     0.032     0.365   0.198204E-09
     0.032     0.381   0.418018E-10
     0.032     0.397   0.835326E-11
     0.032     0.413   0.158205E-11
     0.032     0.429   0.284045E-12
     0.032     0.444   0.483547E-13
     0.032     0.460   0.780609E-14
     0.032     0.476   0.119511E-14
     0.032     0.492   0.173530E-15
     0.032     0.508   0.238958E-16
     0.032     0.524   0.312042E-17
     0.032     0.540   0.386355E-18
     0.032     0.556   0.453474E-19
     0.032     0.571   0.504419E-20
     0.032     0.587   0.531567E-21
     0.032     0.603   0.530485E-22
     0.032     0.619   0.501100E-23
     0.032     0.635   0.447779E-24
     0.032     0.651   0.378276E-25
     0.032     0.667   0.301877E-26
     0.032     0.683   0.227385E-27
     0.032     0.698   0.161503E-28
     0.032     0.714   0.108049E-29
     0.032     0.730   0.680064E-31
     0.032     0.746   0.402138E-32
     0.032     0.762   0.223064E-33
     0.032     0.778   0.115868E-34
     0.032     0.794   0.562524E-36
     0.032     0.810   0.254691E-37
     0.032     0.825   0.107278E-38
     0.032     0.841   0.419204E-40
     0.032     0.857   0.151488E-41
     0.032     0.873   0.504423E-43
     0.032     0.889   0.154121E-44
     0.032     0.905   0.430004E-46
     0.032     0.921   0.108934E-47
     0.032     0.937   0.248897E-49
     0.032     0.952   0.508797E-51
     0.032     0.968   0.921457E-53
     0.032     0.984   0.146033E-54
     0.032     1.000    0.00000    
     0.048     0.000   0.149042    
     0.048     0.016   0.116992    
     0.048     0.032   0.874176E-01
     0.048     0.048   0.619760E-01
     0.048     0.063   0.415834E-01
     0.048     0.079   0.263539E-01
     0.048     0.095   0.157538E-01
     0.048     0.111   0.887416E-02
     0.048     0.127   0.470775E-02
     0.048     0.143   0.235135E-02
     0.048     0.159   0.110565E-02
     0.048     0.175   0.489524E-03
     0.048     0.190   0.204128E-03
     0.048     0.206   0.801990E-04
     0.048     0.222   0.297008E-04
     0.048     0.238   0.103733E-04
     0.048     0.254   0.341860E-05
     0.048     0.270   0.106364E-05
     0.048     0.286   0.312597E-06
     0.048     0.302   0.868269E-07
     0.048     0.317   0.228045E-07
     0.048     0.333   0.566617E-08
     0.048     0.349   0.133247E-08
     0.048     0.365   0.296690E-09
     0.048     0.381   0.625727E-10
     0.048     0.397   0.125039E-10
     0.048     0.413   0.236815E-11
     0.048     0.429   0.425184E-12
     0.048     0.444   0.723817E-13
     0.048     0.460   0.116849E-13
     0.048     0.476   0.178895E-14
     0.048     0.492   0.259756E-15
     0.048     0.508   0.357695E-16
     0.048     0.524   0.467094E-17
     0.048     0.540   0.578332E-18
     0.048     0.556   0.678801E-19
     0.048     0.571   0.755061E-20
     0.048     0.587   0.795698E-21
     0.048     0.603   0.794078E-22
     0.048     0.619   0.750092E-23
     0.048     0.635   0.670277E-24
     0.048     0.651   0.566237E-25
     0.048     0.667   0.451878E-26
     0.048     0.683   0.340370E-27
     0.048     0.698   0.241753E-28
     0.048     0.714   0.161738E-29
     0.048     0.730   0.101798E-30
     0.048     0.746   0.601956E-32
     0.048     0.762   0.333902E-33
     0.048     0.778   0.173442E-34
     0.048     0.794   0.842038E-36
     0.048     0.810   0.381244E-37
     0.048     0.825   0.160584E-38
     0.048     0.841   0.627503E-40
     0.048     0.857   0.226761E-41
     0.048     0.873   0.755067E-43
     0.048     0.889   0.230702E-44
     0.048     0.905   0.643669E-46
     0.048     0.921   0.163063E-47
     0.048     0.937   0.372572E-49
     0.048     0.952   0.761613E-51
     0.048     0.968   0.137932E-52
     0.048     0.984   0.218595E-54
     0.048     1.000    0.00000    
     0.063     0.000   0.198146    
     0.063     0.016   0.155537    
     0.063     0.032   0.116218    
     0.063     0.048   0.823948E-01
     0.063     0.063   0.552835E-01
     0.063     0.079   0.350365E-01
     0.063     0.095   0.209441E-01
     0.063     0.111   0.117979E-01
     0.063     0.127   0.625878E-02
     0.063     0.143   0.312604E-02
     0.063     0.159   0.146993E-02
     0.063     0.175   0.650804E-03
     0.063     0.190   0.271381E-03
     0.063     0.206   0.106622E-03
     0.063     0.222   0.394861E-04
     0.063     0.238   0.137910E-04
     0.063     0.254   0.454490E-05
     0.063     0.270   0.141406E-05
     0.063     0.286   0.415587E-06
     0.063     0.302   0.115433E-06
     0.063     0.317   0.303177E-07
     0.063     0.333   0.753296E-08
     0.063     0.349   0.177147E-08
     0.063     0.365   0.394438E-09
     0.063     0.381   0.831881E-10
     0.063     0.397   0.166235E-10
     0.063     0.413   0.314837E-11
     0.063     0.429   0.565266E-12
     0.063     0.444   0.962288E-13
     0.063     0.460   0.155346E-13
     0.063     0.476   0.237834E-14
     0.063     0.492   0.345335E-15
     0.063     0.508   0.475542E-16
     0.063     0.524   0.620983E-17
     0.063     0.540   0.768870E-18
     0.063     0.556   0.902440E-19
     0.063     0.571   0.100383E-19
     0.063     0.587   0.105785E-20
     0.063     0.603   0.105570E-21
     0.063     0.619   0.997219E-23
     0.063     0.635   0.891109E-24
     0.063     0.651   0.752792E-25
     0.063     0.667   0.600755E-26
     0.063     0.683   0.452509E-27
     0.063     0.698   0.321402E-28
     0.063     0.714   0.215024E-29
     0.063     0.730   0.135337E-30
     0.063     0.746   0.800279E-32
     0.063     0.762   0.443911E-33
     0.063     0.778   0.230585E-34
     0.063     0.794   0.111946E-35
     0.063     0.810   0.506850E-37
     0.063     0.825   0.213490E-38
     0.063     0.841   0.834241E-40
     0.063     0.857   0.301471E-41
     0.063     0.873   0.100383E-42
     0.063     0.889   0.306710E-44
     0.063     0.905   0.855734E-46
     0.063     0.921   0.216786E-47
     0.063     0.937   0.495321E-49
     0.063     0.952   0.101254E-50
     0.063     0.968   0.183376E-52
     0.063     0.984   0.290614E-54
     0.063     1.000    0.00000    
     0.079     0.000   0.246757    
     0.079     0.016   0.193695    
     0.079     0.032   0.144730    
     0.079     0.048   0.102609    
     0.079     0.063   0.688463E-01
     0.079     0.079   0.436320E-01
     0.079     0.095   0.260823E-01
     0.079     0.111   0.146922E-01
     0.079     0.127   0.779425E-02
     0.079     0.143   0.389295E-02
     0.079     0.159   0.183054E-02
     0.079     0.175   0.810466E-03
     0.079     0.190   0.337959E-03
     0.079     0.206   0.132779E-03
     0.079     0.222   0.491733E-04
     0.079     0.238   0.171743E-04
     0.079     0.254   0.565991E-05
     0.079     0.270   0.176098E-05
     0.079     0.286   0.517542E-06
     0.079     0.302   0.143752E-06
     0.079     0.317   0.377555E-07
     0.079     0.333   0.938103E-08
     0.079     0.349   0.220607E-08
     0.079     0.365   0.491206E-09
     0.079     0.381   0.103597E-09
     0.079     0.397   0.207018E-10
     0.079     0.413   0.392076E-11
     0.079     0.429   0.703943E-12
     0.079     0.444   0.119837E-12
     0.079     0.460   0.193457E-13
     0.079     0.476   0.296182E-14
     0.079     0.492   0.430057E-15
     0.079     0.508   0.592206E-16
     0.079     0.524   0.773330E-17
     0.079     0.540   0.957498E-18
     0.079     0.556   0.112384E-18
     0.079     0.571   0.125009E-19
     0.079     0.587   0.131737E-20
     0.079     0.603   0.131469E-21
     0.079     0.619   0.124187E-22
     0.079     0.635   0.110972E-23
     0.079     0.651   0.937474E-25
     0.079     0.667   0.748138E-26
     0.079     0.683   0.563524E-27
     0.079     0.698   0.400251E-28
     0.079     0.714   0.267776E-29
     0.079     0.730   0.168539E-30
     0.079     0.746   0.996611E-32
     0.079     0.762   0.552815E-33
     0.079     0.778   0.287155E-34
     0.079     0.794   0.139410E-35
     0.079     0.810   0.631196E-37
     0.079     0.825   0.265866E-38
     0.079     0.841   0.103891E-39
     0.079     0.857   0.375430E-41
     0.079     0.873   0.125010E-42
     0.079     0.889   0.381955E-44
     0.079     0.905   0.106567E-45
     0.079     0.921   0.269970E-47
     0.079     0.937   0.616838E-49
     0.079     0.952   0.126094E-50
     0.079     0.968   0.228363E-52
     0.079     0.984   0.361910E-54
     0.079     1.000    0.00000    
     0.095     0.000   0.294755    
     0.095     0.016   0.231371    
     0.095     0.032   0.172882    
     0.095     0.048   0.122568    
     0.095     0.063   0.822378E-01
     0.095     0.079   0.521190E-01
     0.095     0.095   0.311557E-01
     0.095     0.111   0.175501E-01
     0.095     0.127   0.931034E-02
     0.095     0.143   0.465018E-02
     0.095     0.159   0.218661E-02
     0.095     0.175   0.968113E-03
     0.095     0.190   0.403696E-03
     0.095     0.206   0.158606E-03
     0.095     0.222   0.587382E-04
     0.095     0.238   0.205150E-04
     0.095     0.254   0.676084E-05
     0.095     0.270   0.210351E-05
     0.095     0.286   0.618212E-06
     0.095     0.302   0.171714E-06
     0.095     0.317   0.450995E-07
     0.095     0.333   0.112058E-07
     0.095     0.349   0.263518E-08
     0.095     0.365   0.586752E-09
     0.095     0.381   0.123748E-09
     0.095     0.397   0.247285E-10
     0.095     0.413   0.468341E-11
     0.095     0.429   0.840870E-12
     0.095     0.444   0.143146E-12
     0.095     0.460   0.231087E-13
     0.095     0.476   0.353794E-14
     0.095     0.492   0.513709E-15
     0.095     0.508   0.707399E-16
     0.095     0.524   0.923753E-17
     0.095     0.540   0.114374E-17
     0.095     0.556   0.134244E-18
     0.095     0.571   0.149325E-19
     0.095     0.587   0.157362E-20
     0.095     0.603   0.157042E-21
     0.095     0.619   0.148343E-22
     0.095     0.635   0.132558E-23
     0.095     0.651   0.111983E-24
     0.095     0.667   0.893661E-26
     0.095     0.683   0.673137E-27
     0.095     0.698   0.478105E-28
     0.095     0.714   0.319862E-29
     0.095     0.730   0.201322E-30
     0.095     0.746   0.119047E-31
     0.095     0.762   0.660346E-33
     0.095     0.778   0.343010E-34
     0.095     0.794   0.166527E-35
     0.095     0.810   0.753972E-37
     0.095     0.825   0.317580E-38
     0.095     0.841   0.124099E-39
     0.095     0.857   0.448457E-41
     0.095     0.873   0.149327E-42
     0.095     0.889   0.456251E-44
     0.095     0.905   0.127296E-45
     0.095     0.921   0.322483E-47
     0.095     0.937   0.736822E-49
     0.095     0.952   0.150621E-50
     0.095     0.968   0.272783E-52
     0.095     0.984   0.432307E-54
     0.095     1.000    0.00000    
     0.111     0.000   0.342020    
     0.111     0.016   0.268472    
     0.111     0.032   0.200605    
     0.111     0.048   0.142222    
     0.111     0.063   0.954249E-01
     0.111     0.079   0.604765E-01
     0.111     0.095   0.361516E-01
     0.111     0.111   0.203643E-01
     0.111     0.127   0.108033E-01
     0.111     0.143   0.539586E-02
     0.111     0.159   0.253724E-02
     0.111     0.175   0.112335E-02
     0.111     0.190   0.468430E-03
     0.111     0.206   0.184040E-03
     0.111     0.222   0.681570E-04
     0.111     0.238   0.238046E-04
     0.111     0.254   0.784496E-05
     0.111     0.270   0.244082E-05
     0.111     0.286   0.717344E-06
     0.111     0.302   0.199249E-06
     0.111     0.317   0.523314E-07
     0.111     0.333   0.130026E-07
     0.111     0.349   0.305774E-08
     0.111     0.365   0.680840E-09
     0.111     0.381   0.143591E-09
     0.111     0.397   0.286938E-10
     0.111     0.413   0.543441E-11
     0.111     0.429   0.975707E-12
     0.111     0.444   0.166101E-12
     0.111     0.460   0.268143E-13
     0.111     0.476   0.410526E-14
     0.111     0.492   0.596084E-15
     0.111     0.508   0.820833E-16
     0.111     0.524   0.107188E-16
     0.111     0.540   0.132715E-17
     0.111     0.556   0.155770E-18
     0.111     0.571   0.173270E-19
     0.111     0.587   0.182596E-20
     0.111     0.603   0.182224E-21
     0.111     0.619   0.172130E-22
     0.111     0.635   0.153814E-23
     0.111     0.651   0.129939E-24
     0.111     0.667   0.103696E-25
     0.111     0.683   0.781077E-27
     0.111     0.698   0.554771E-28
     0.111     0.714   0.371153E-29
     0.111     0.730   0.233605E-30
     0.111     0.746   0.138136E-31
     0.111     0.762   0.766234E-33
     0.111     0.778   0.398013E-34
     0.111     0.794   0.193230E-35
     0.111     0.810   0.874874E-37
     0.111     0.825   0.368505E-38
     0.111     0.841   0.143998E-39
     0.111     0.857   0.520369E-41
     0.111     0.873   0.173272E-42
     0.111     0.889   0.529412E-44
     0.111     0.905   0.147708E-45
     0.111     0.921   0.374194E-47
     0.111     0.937   0.854974E-49
     0.111     0.952   0.174774E-50
     0.111     0.968   0.316525E-52
     0.111     0.984   0.501629E-54
     0.111     1.000    0.00000    
     0.127     0.000   0.388435    
     0.127     0.016   0.304906    
     0.127     0.032   0.227828    
     0.127     0.048   0.161522    
     0.127     0.063   0.108375    
     0.127     0.079   0.686836E-01
     0.127     0.095   0.410577E-01
     0.127     0.111   0.231279E-01
     0.127     0.127   0.122694E-01
     0.127     0.143   0.612811E-02
     0.127     0.159   0.288156E-02
     0.127     0.175   0.127580E-02
     0.127     0.190   0.532000E-03
     0.127     0.206   0.209015E-03
     0.127     0.222   0.774064E-04
     0.127     0.238   0.270351E-04
     0.127     0.254   0.890958E-05
     0.127     0.270   0.277205E-05
     0.127     0.286   0.814693E-06
     0.127     0.302   0.226289E-06
     0.127     0.317   0.594331E-07
     0.127     0.333   0.147672E-07
     0.127     0.349   0.347270E-08
     0.127     0.365   0.773235E-09
     0.127     0.381   0.163077E-09
     0.127     0.397   0.325878E-10
     0.127     0.413   0.617190E-11
     0.127     0.429   0.110812E-11
     0.127     0.444   0.188642E-12
     0.127     0.460   0.304532E-13
     0.127     0.476   0.466237E-14
     0.127     0.492   0.676977E-15
     0.127     0.508   0.932226E-16
     0.127     0.524   0.121734E-16
     0.127     0.540   0.150725E-17
     0.127     0.556   0.176909E-18
     0.127     0.571   0.196784E-19
     0.127     0.587   0.207375E-20
     0.127     0.603   0.206953E-21
     0.127     0.619   0.195489E-22
     0.127     0.635   0.174688E-23
     0.127     0.651   0.147573E-24
     0.127     0.667   0.117769E-25
     0.127     0.683   0.887074E-27
     0.127     0.698   0.630058E-28
     0.127     0.714   0.421522E-29
     0.127     0.730   0.265307E-30
     0.127     0.746   0.156882E-31
     0.127     0.762   0.870218E-33
     0.127     0.778   0.452026E-34
     0.127     0.794   0.219452E-35
     0.127     0.810   0.993601E-37
     0.127     0.825   0.418514E-38
     0.127     0.841   0.163540E-39
     0.127     0.857   0.590986E-41
     0.127     0.873   0.196786E-42
     0.127     0.889   0.601257E-44
     0.127     0.905   0.167753E-45
     0.127     0.921   0.424975E-47
     0.127     0.937   0.971000E-49
     0.127     0.952   0.198492E-50
     0.127     0.968   0.359479E-52
     0.127     0.984   0.569703E-54
     0.127     1.000    0.00000    
     0.143     0.000   0.433884    
     0.143     0.016   0.340581    
     0.143     0.032   0.254485    
     0.143     0.048   0.180421    
     0.143     0.063   0.121055    
     0.143     0.079   0.767199E-01
     0.143     0.095   0.458616E-01
     0.143     0.111   0.258340E-01
     0.143     0.127   0.137049E-01
     0.143     0.143   0.684513E-02
     0.143     0.159   0.321872E-02
     0.143     0.175   0.142508E-02
     0.143     0.190   0.594247E-03
     0.143     0.206   0.233471E-03
     0.143     0.222   0.864634E-04
     0.143     0.238   0.301983E-04
     0.143     0.254   0.995205E-05
     0.143     0.270   0.309640E-05
     0.143     0.286   0.910016E-06
     0.143     0.302   0.252766E-06
     0.143     0.317   0.663871E-07
     0.143     0.333   0.164950E-07
     0.143     0.349   0.387902E-08
     0.143     0.365   0.863708E-09
     0.143     0.381   0.182158E-09
     0.143     0.397   0.364008E-10
     0.143     0.413   0.689404E-11
     0.143     0.429   0.123777E-11
     0.143     0.444   0.210714E-12
     0.143     0.460   0.340164E-13
     0.143     0.476   0.520790E-14
     0.143     0.492   0.756187E-15
     0.143     0.508   0.104130E-15
     0.143     0.524   0.135978E-16
     0.143     0.540   0.168361E-17
     0.143     0.556   0.197609E-18
     0.143     0.571   0.219809E-19
     0.143     0.587   0.231639E-20
     0.143     0.603   0.231168E-21
     0.143     0.619   0.218363E-22
     0.143     0.635   0.195127E-23
     0.143     0.651   0.164840E-24
     0.143     0.667   0.131548E-25
     0.143     0.683   0.990867E-27
     0.143     0.698   0.703778E-28
     0.143     0.714   0.470842E-29
     0.143     0.730   0.296349E-30
     0.143     0.746   0.175238E-31
     0.143     0.762   0.972038E-33
     0.143     0.778   0.504916E-34
     0.143     0.794   0.245130E-35
     0.143     0.810   0.110986E-36
     0.143     0.825   0.467482E-38
     0.143     0.841   0.182675E-39
     0.143     0.857   0.660135E-41
     0.143     0.873   0.219811E-42
     0.143     0.889   0.671607E-44
     0.143     0.905   0.187381E-45
     0.143     0.921   0.474699E-47
     0.143     0.937   0.108461E-48
     0.143     0.952   0.221717E-50
     0.143     0.968   0.401540E-52
     0.143     0.984   0.636362E-54
     0.143     1.000    0.00000    
     0.159     0.000   0.478254    
     0.159     0.016   0.375410    
     0.159     0.032   0.280510    
     0.159     0.048   0.198872    
     0.159     0.063   0.133435    
     0.159     0.079   0.845655E-01
     0.159     0.095   0.505516E-01
     0.159     0.111   0.284758E-01
     0.159     0.127   0.151065E-01
     0.159     0.143   0.754514E-02
     0.159     0.159   0.354787E-02
     0.159     0.175   0.157081E-02
     0.159     0.190   0.655016E-03
     0.159     0.206   0.257346E-03
     0.159     0.222   0.953054E-04
     0.159     0.238   0.332865E-04
     0.159     0.254   0.109698E-04
     0.159     0.270   0.341305E-05
     0.159     0.286   0.100308E-05
     0.159     0.302   0.278614E-06
     0.159     0.317   0.731760E-07
     0.159     0.333   0.181819E-07
     0.159     0.349   0.427570E-08
     0.159     0.365   0.952033E-09
     0.159     0.381   0.200786E-09
     0.159     0.397   0.401232E-10
     0.159     0.413   0.759904E-11
     0.159     0.429   0.136435E-11
     0.159     0.444   0.232262E-12
     0.159     0.460   0.374950E-13
     0.159     0.476   0.574047E-14
     0.159     0.492   0.833516E-15
     0.159     0.508   0.114779E-15
     0.159     0.524   0.149883E-16
     0.159     0.540   0.185578E-17
     0.159     0.556   0.217817E-18
     0.159     0.571   0.242288E-19
     0.159     0.587   0.255328E-20
     0.159     0.603   0.254808E-21
     0.159     0.619   0.240693E-22
     0.159     0.635   0.215082E-23
     0.159     0.651   0.181697E-24
     0.159     0.667   0.145001E-25
     0.159     0.683   0.109220E-26
     0.159     0.698   0.775748E-28
     0.159     0.714   0.518992E-29
     0.159     0.730   0.326655E-30
     0.159     0.746   0.193159E-31
     0.159     0.762   0.107144E-32
     0.159     0.778   0.556550E-34
     0.159     0.794   0.270197E-35
     0.159     0.810   0.122335E-36
     0.159     0.825   0.515288E-38
     0.159     0.841   0.201356E-39
     0.159     0.857   0.727642E-41
     0.159     0.873   0.242290E-42
     0.159     0.889   0.740288E-44
     0.159     0.905   0.206544E-45
     0.159     0.921   0.523243E-47
     0.159     0.937   0.119553E-48
     0.159     0.952   0.244390E-50
     0.159     0.968   0.442603E-52
     0.159     0.984   0.701438E-54
     0.159     1.000    0.00000    
     0.175     0.000   0.521435    
     0.175     0.016   0.409306    
     0.175     0.032   0.305837    
     0.175     0.048   0.216827    
     0.175     0.063   0.145482    
     0.175     0.079   0.922009E-01
     0.175     0.095   0.551159E-01
     0.175     0.111   0.310469E-01
     0.175     0.127   0.164704E-01
     0.175     0.143   0.822638E-02
     0.175     0.159   0.386821E-02
     0.175     0.175   0.171264E-02
     0.175     0.190   0.714157E-03
     0.175     0.206   0.280582E-03
     0.175     0.222   0.103910E-03
     0.175     0.238   0.362919E-04
     0.175     0.254   0.119602E-04
     0.175     0.270   0.372121E-05
     0.175     0.286   0.109364E-05
     0.175     0.302   0.303770E-06
     0.175     0.317   0.797830E-07
     0.175     0.333   0.198235E-07
     0.175     0.349   0.466175E-08
     0.175     0.365   0.103799E-08
     0.175     0.381   0.218915E-09
     0.175     0.397   0.437459E-10
     0.175     0.413   0.828516E-11
     0.175     0.429   0.148754E-11
     0.175     0.444   0.253233E-12
     0.175     0.460   0.408804E-13
     0.175     0.476   0.625877E-14
     0.175     0.492   0.908774E-15
     0.175     0.508   0.125142E-15
     0.175     0.524   0.163416E-16
     0.175     0.540   0.202334E-17
     0.175     0.556   0.237483E-18
     0.175     0.571   0.264164E-19
     0.175     0.587   0.278381E-20
     0.175     0.603   0.277814E-21
     0.175     0.619   0.262425E-22
     0.175     0.635   0.234501E-23
     0.175     0.651   0.198102E-24
     0.175     0.667   0.158093E-25
     0.175     0.683   0.119081E-26
     0.175     0.698   0.845790E-28
     0.175     0.714   0.565851E-29
     0.175     0.730   0.356148E-30
     0.175     0.746   0.210599E-31
     0.175     0.762   0.116818E-32
     0.175     0.778   0.606800E-34
     0.175     0.794   0.294593E-35
     0.175     0.810   0.133381E-36
     0.175     0.825   0.561814E-38
     0.175     0.841   0.219536E-39
     0.175     0.857   0.793341E-41
     0.175     0.873   0.264166E-42
     0.175     0.889   0.807128E-44
     0.175     0.905   0.225192E-45
     0.175     0.921   0.570486E-47
     0.175     0.937   0.130347E-48
     0.175     0.952   0.266456E-50
     0.175     0.968   0.482565E-52
     0.175     0.984   0.764770E-54
     0.175     1.000    0.00000    
     0.190     0.000   0.563320    
     0.190     0.016   0.442184    
     0.190     0.032   0.330403    
     0.190     0.048   0.234244    
     0.190     0.063   0.157168    
     0.190     0.079   0.996070E-01
     0.190     0.095   0.595431E-01
     0.190     0.111   0.335408E-01
     0.190     0.127   0.177934E-01
     0.190     0.143   0.888718E-02
     0.190     0.159   0.417893E-02
     0.190     0.175   0.185021E-02
     0.190     0.190   0.771522E-03
     0.190     0.206   0.303120E-03
     0.190     0.222   0.112257E-03
     0.190     0.238   0.392071E-04
     0.190     0.254   0.129209E-04
     0.190     0.270   0.402012E-05
     0.190     0.286   0.118149E-05
     0.190     0.302   0.328171E-06
     0.190     0.317   0.861917E-07
     0.190     0.333   0.214159E-07
     0.190     0.349   0.503621E-08
     0.190     0.365   0.112137E-08
     0.190     0.381   0.236500E-09
     0.190     0.397   0.472598E-10
     0.190     0.413   0.895067E-11
     0.190     0.429   0.160703E-11
     0.190     0.444   0.273574E-12
     0.190     0.460   0.441641E-13
     0.190     0.476   0.676152E-14
     0.190     0.492   0.981772E-15
     0.190     0.508   0.135194E-15
     0.190     0.524   0.176543E-16
     0.190     0.540   0.218586E-17
     0.190     0.556   0.256559E-18
     0.190     0.571   0.285383E-19
     0.190     0.587   0.300742E-20
     0.190     0.603   0.300130E-21
     0.190     0.619   0.283505E-22
     0.190     0.635   0.253338E-23
     0.190     0.651   0.214015E-24
     0.190     0.667   0.170792E-25
     0.190     0.683   0.128646E-26
     0.190     0.698   0.913729E-28
     0.190     0.714   0.611303E-29
     0.190     0.730   0.384757E-30
     0.190     0.746   0.227515E-31
     0.190     0.762   0.126202E-32
     0.190     0.778   0.655542E-34
     0.190     0.794   0.318257E-35
     0.190     0.810   0.144095E-36
     0.190     0.825   0.606942E-38
     0.190     0.841   0.237171E-39
     0.190     0.857   0.857067E-41
     0.190     0.873   0.285385E-42
     0.190     0.889   0.871961E-44
     0.190     0.905   0.243281E-45
     0.190     0.921   0.616311E-47
     0.190     0.937   0.140817E-48
     0.190     0.952   0.287859E-50
     0.190     0.968   0.521328E-52
     0.190     0.984   0.826201E-54