Title="Temperature Data"
Variables="X","Y","T"
 
Zone I=    64, J=    64, F=POINT
     0.000     0.000    0.00000    
     0.000     0.016    0.00000    
     0.000     0.032    0.00000    
     0.000     0.048    0.00000    
     0.000     0.063    0.00000    
     0.000     0.079    0.00000    
     0.000     0.095    0.00000    
     0.000     0.111    0.00000    
     0.000     0.127    0.00000    
     0.000     0.143    0.00000    
     0.000     0.159    0.00000    
     0.000     0.175    0.00000    
     0.000     0.190    0.00000    
     0.000     0.206    0.00000    
     0.000     0.222    0.00000    
     0.000     0.238    0.00000    
     0.000     0.254    0.00000    
     0.000     0.270    0.00000    
     0.000     0.286    0.00000    
     0.000     0.302    0.00000    
     0.000     0.317    0.00000    
     0.000     0.333    0.00000    
     0.000     0.349    0.00000    
     0.000     0.365    0.00000    
     0.000     0.381    0.00000    
     0.000     0.397    0.00000    
     0.000     0.413    0.00000    
     0.000     0.429    0.00000    
     0.000     0.444    0.00000    
     0.000     0.460    0.00000    
     0.000     0.476    0.00000    
     0.000     0.492    0.00000    
     0.000     0.508    0.00000    
     0.000     0.524    0.00000    
     0.000     0.540    0.00000    
     0.000     0.556    0.00000    
     0.000     0.571    0.00000    
     0.000     0.587    0.00000    
     0.000     0.603    0.00000    
     0.000     0.619    0.00000    
     0.000     0.635    0.00000    
     0.000     0.651    0.00000    
     0.000     0.667    0.00000    
     0.000     0.683    0.00000    
     0.000     0.698    0.00000    
     0.000     0.714    0.00000    
     0.000     0.730    0.00000    
     0.000     0.746    0.00000    
     0.000     0.762    0.00000    
     0.000     0.778    0.00000    
     0.000     0.794    0.00000    
     0.000     0.810    0.00000    
     0.000     0.825    0.00000    
     0.000     0.841    0.00000    
     0.000     0.857    0.00000    
     0.000     0.873    0.00000    
     0.000     0.889    0.00000    
     0.000     0.905    0.00000    
     0.000     0.921    0.00000    
     0.000     0.937    0.00000    
     0.000     0.952    0.00000    
     0.000     0.968    0.00000    
     0.000     0.984    0.00000    
     0.000     1.000    0.00000    
     0.016     0.000   0.498459E-01
     0.016     0.016   0.337625E-01
     0.016     0.032   0.202770E-01
     0.016     0.048   0.107167E-01
     0.016     0.063   0.496572E-02
     0.016     0.079   0.201525E-02
     0.016     0.095   0.716791E-03
     0.016     0.111   0.223806E-03
     0.016     0.127   0.614652E-04
     0.016     0.143   0.148777E-04
     0.016     0.159   0.317951E-05
     0.016     0.175   0.600782E-06
     0.016     0.190   0.100464E-06
     0.016     0.206   0.148733E-07
     0.016     0.222   0.194897E-08
     0.016     0.238   0.225845E-09
     0.016     0.254   0.231041E-10
     0.016     0.270   0.208131E-11
     0.016     0.286   0.164514E-12
     0.016     0.302   0.113559E-13
     0.016     0.317   0.680246E-15
     0.016     0.333   0.350747E-16
     0.016     0.349   0.154018E-17
     0.016     0.365   0.567893E-19
     0.016     0.381   0.172499E-20
     0.016     0.397   0.420255E-22
     0.016     0.413   0.789396E-24
     0.016     0.429   0.107311E-25
     0.016     0.444   0.939534E-28
     0.016     0.460   0.397778E-30
     0.016     0.476    0.00000    
     0.016     0.492    0.00000    
     0.016     0.508    0.00000    
     0.016     0.524    0.00000    
     0.016     0.540    0.00000    
     0.016     0.556    0.00000    
     0.016     0.571    0.00000    
     0.016     0.587    0.00000    
     0.016     0.603    0.00000    
     0.016     0.619    0.00000    
     0.016     0.635    0.00000    
     0.016     0.651    0.00000    
     0.016     0.667    0.00000    
     0.016     0.683    0.00000    
     0.016     0.698    0.00000    
     0.016     0.714    0.00000    
     0.016     0.730    0.00000    
     0.016     0.746    0.00000    
     0.016     0.762    0.00000    
     0.016     0.778    0.00000    
     0.016     0.794    0.00000    
     0.016     0.810    0.00000    
     0.016     0.825    0.00000    
     0.016     0.841    0.00000    
     0.016     0.857    0.00000    
     0.016     0.873    0.00000    
     0.016     0.889    0.00000    
     0.016     0.905    0.00000    
     0.016     0.921    0.00000    
     0.016     0.937    0.00000    
     0.016     0.952    0.00000    
     0.016     0.968    0.00000    
     0.016     0.984    0.00000    
     0.016     1.000    0.00000    
     0.032     0.000   0.995678E-01
     0.032     0.016   0.674412E-01
     0.032     0.032   0.405036E-01
     0.032     0.048   0.214067E-01
     0.032     0.063   0.991910E-02
     0.032     0.079   0.402548E-02
     0.032     0.095   0.143180E-02
     0.032     0.111   0.447056E-03
     0.032     0.127   0.122778E-03
     0.032     0.143   0.297183E-04
     0.032     0.159   0.635111E-05
     0.032     0.175   0.120007E-05
     0.032     0.190   0.200678E-06
     0.032     0.206   0.297096E-07
     0.032     0.222   0.389310E-08
     0.032     0.238   0.451128E-09
     0.032     0.254   0.461507E-10
     0.032     0.270   0.415744E-11
     0.032     0.286   0.328620E-12
     0.032     0.302   0.226835E-13
     0.032     0.317   0.135880E-14
     0.032     0.333   0.700621E-16
     0.032     0.349   0.307653E-17
     0.032     0.365   0.113437E-18
     0.032     0.381   0.344569E-20
     0.032     0.397   0.839466E-22
     0.032     0.413   0.157683E-23
     0.032     0.429   0.214355E-25
     0.032     0.444   0.187673E-27
     0.032     0.460   0.794568E-30
     0.032     0.476    0.00000    
     0.032     0.492    0.00000    
     0.032     0.508    0.00000    
     0.032     0.524    0.00000    
     0.032     0.540    0.00000    
     0.032     0.556    0.00000    
     0.032     0.571    0.00000    
     0.032     0.587    0.00000    
     0.032     0.603    0.00000    
     0.032     0.619    0.00000    
     0.032     0.635    0.00000    
     0.032     0.651    0.00000    
     0.032     0.667    0.00000    
     0.032     0.683    0.00000    
     0.032     0.698    0.00000    
     0.032     0.714    0.00000    
     0.032     0.730    0.00000    
     0.032     0.746    0.00000    
     0.032     0.762    0.00000    
     0.032     0.778    0.00000    
     0.032     0.794    0.00000    
     0.032     0.810    0.00000    
     0.032     0.825    0.00000    
     0.032     0.841    0.00000    
     0.032     0.857    0.00000    
     0.032     0.873    0.00000    
     0.032     0.889    0.00000    
     0.032     0.905    0.00000    
     0.032     0.921    0.00000    
     0.032     0.937    0.00000    
     0.032     0.952    0.00000    
     0.032     0.968    0.00000    
     0.032     0.984    0.00000    
     0.032     1.000    0.00000    
     0.048     0.000   0.149042    
     0.048     0.016   0.100952    
     0.048     0.032   0.606295E-01
     0.048     0.048   0.320435E-01
     0.048     0.063   0.148478E-01
     0.048     0.079   0.602571E-02
     0.048     0.095   0.214325E-02
     0.048     0.111   0.669194E-03
     0.048     0.127   0.183785E-03
     0.048     0.143   0.444851E-04
     0.048     0.159   0.950692E-05
     0.048     0.175   0.179637E-05
     0.048     0.190   0.300394E-06
     0.048     0.206   0.444721E-07
     0.048     0.222   0.582755E-08
     0.048     0.238   0.675289E-09
     0.048     0.254   0.690826E-10
     0.048     0.270   0.622323E-11
     0.048     0.286   0.491908E-12
     0.048     0.302   0.339548E-13
     0.048     0.317   0.203398E-14
     0.048     0.333   0.104875E-15
     0.048     0.349   0.460522E-17
     0.048     0.365   0.169803E-18
     0.048     0.381   0.515782E-20
     0.048     0.397   0.125659E-21
     0.048     0.413   0.236034E-23
     0.048     0.429   0.320866E-25
     0.048     0.444   0.280927E-27
     0.048     0.460   0.118938E-29
     0.048     0.476    0.00000    
     0.048     0.492    0.00000    
     0.048     0.508    0.00000    
     0.048     0.524    0.00000    
     0.048     0.540    0.00000    
     0.048     0.556    0.00000    
     0.048     0.571    0.00000    
     0.048     0.587    0.00000    
     0.048     0.603    0.00000    
     0.048     0.619    0.00000    
     0.048     0.635    0.00000    
     0.048     0.651    0.00000    
     0.048     0.667    0.00000    
     0.048     0.683    0.00000    
     0.048     0.698    0.00000    
     0.048     0.714    0.00000    
     0.048     0.730    0.00000    
     0.048     0.746    0.00000    
     0.048     0.762    0.00000    
     0.048     0.778    0.00000    
     0.048     0.794    0.00000    
     0.048     0.810    0.00000    
     0.048     0.825    0.00000    
     0.048     0.841    0.00000    
     0.048     0.857    0.00000    
     0.048     0.873    0.00000    
     0.048     0.889    0.00000    
     0.048     0.905    0.00000    
     0.048     0.921    0.00000    
     0.048     0.937    0.00000    
     0.048     0.952    0.00000    
     0.048     0.968    0.00000    
     0.048     0.984    0.00000    
     0.048     1.000    0.00000    
     0.063     0.000   0.198146    
     0.063     0.016   0.134212    
     0.063     0.032   0.806046E-01
     0.063     0.048   0.426006E-01
     0.063     0.063   0.197396E-01
     0.063     0.079   0.801096E-02
     0.063     0.095   0.284937E-02
     0.063     0.111   0.889669E-03
     0.063     0.127   0.244335E-03
     0.063     0.143   0.591413E-04
     0.063     0.159   0.126391E-04
     0.063     0.175   0.238821E-05
     0.063     0.190   0.399362E-06
     0.063     0.206   0.591240E-07
     0.063     0.222   0.774752E-08
     0.063     0.238   0.897772E-09
     0.063     0.254   0.918428E-10
     0.063     0.270   0.827355E-11
     0.063     0.286   0.653974E-12
     0.063     0.302   0.451416E-13
     0.063     0.317   0.270410E-14
     0.063     0.333   0.139428E-15
     0.063     0.349   0.612247E-17
     0.063     0.365   0.225747E-18
     0.063     0.381   0.685714E-20
     0.063     0.397   0.167059E-21
     0.063     0.413   0.313799E-23
     0.063     0.429   0.426579E-25
     0.063     0.444   0.373481E-27
     0.063     0.460   0.158124E-29
     0.063     0.476    0.00000    
     0.063     0.492    0.00000    
     0.063     0.508    0.00000    
     0.063     0.524    0.00000    
     0.063     0.540    0.00000    
     0.063     0.556    0.00000    
     0.063     0.571    0.00000    
     0.063     0.587    0.00000    
     0.063     0.603    0.00000    
     0.063     0.619    0.00000    
     0.063     0.635    0.00000    
     0.063     0.651    0.00000    
     0.063     0.667    0.00000    
     0.063     0.683    0.00000    
     0.063     0.698    0.00000    
     0.063     0.714    0.00000    
     0.063     0.730    0.00000    
     0.063     0.746    0.00000    
     0.063     0.762    0.00000    
     0.063     0.778    0.00000    
     0.063     0.794    0.00000    
     0.063     0.810    0.00000    
     0.063     0.825    0.00000    
     0.063     0.841    0.00000    
     0.063     0.857    0.00000    
     0.063     0.873    0.00000    
     0.063     0.889    0.00000    
     0.063     0.905    0.00000    
     0.063     0.921    0.00000    
     0.063     0.937    0.00000    
     0.063     0.952    0.00000    
     0.063     0.968    0.00000    
     0.063     0.984    0.00000    
     0.063     1.000    0.00000    
     0.079     0.000   0.246757    
     0.079     0.016   0.167138    
     0.079     0.032   0.100379    
     0.079     0.048   0.530518E-01
     0.079     0.063   0.245824E-01
     0.079     0.079   0.997629E-02
     0.079     0.095   0.354841E-02
     0.079     0.111   0.110793E-02
     0.079     0.127   0.304278E-03
     0.079     0.143   0.736505E-04
     0.079     0.159   0.157399E-04
     0.079     0.175   0.297411E-05
     0.079     0.190   0.497338E-06
     0.079     0.206   0.736289E-07
     0.079     0.222   0.964822E-08
     0.079     0.238   0.111802E-08
     0.079     0.254   0.114375E-09
     0.079     0.270   0.103033E-10
     0.079     0.286   0.814414E-12
     0.079     0.302   0.562163E-13
     0.079     0.317   0.336749E-14
     0.079     0.333   0.173634E-15
     0.079     0.349   0.762450E-17
     0.079     0.365   0.281130E-18
     0.079     0.381   0.853940E-20
     0.079     0.397   0.208043E-21
     0.079     0.413   0.390783E-23
     0.079     0.429   0.531232E-25
     0.079     0.444   0.465108E-27
     0.079     0.460   0.196916E-29
     0.079     0.476    0.00000    
     0.079     0.492    0.00000    
     0.079     0.508    0.00000    
     0.079     0.524    0.00000    
     0.079     0.540    0.00000    
     0.079     0.556    0.00000    
     0.079     0.571    0.00000    
     0.079     0.587    0.00000    
     0.079     0.603    0.00000    
     0.079     0.619    0.00000    
     0.079     0.635    0.00000    
     0.079     0.651    0.00000    
     0.079     0.667    0.00000    
     0.079     0.683    0.00000    
     0.079     0.698    0.00000    
     0.079     0.714    0.00000    
     0.079     0.730    0.00000    
     0.079     0.746    0.00000    
     0.079     0.762    0.00000    
     0.079     0.778    0.00000    
     0.079     0.794    0.00000    
     0.079     0.810    0.00000    
     0.079     0.825    0.00000    
     0.079     0.841    0.00000    
     0.079     0.857    0.00000    
     0.079     0.873    0.00000    
     0.079     0.889    0.00000    
     0.079     0.905    0.00000    
     0.079     0.921    0.00000    
     0.079     0.937    0.00000    
     0.079     0.952    0.00000    
     0.079     0.968    0.00000    
     0.079     0.984    0.00000    
     0.079     1.000    0.00000    
     0.095     0.000   0.294755    
     0.095     0.016   0.199649    
     0.095     0.032   0.119905    
     0.095     0.048   0.633712E-01
     0.095     0.063   0.293640E-01
     0.095     0.079   0.119168E-01
     0.095     0.095   0.423862E-02
     0.095     0.111   0.132344E-02
     0.095     0.127   0.363464E-03
     0.095     0.143   0.879765E-04
     0.095     0.159   0.188015E-04
     0.095     0.175   0.355262E-05
     0.095     0.190   0.594077E-06
     0.095     0.206   0.879507E-07
     0.095     0.222   0.115249E-07
     0.095     0.238   0.133549E-08
     0.095     0.254   0.136622E-09
     0.095     0.270   0.123074E-10
     0.095     0.286   0.972828E-12
     0.095     0.302   0.671511E-13
     0.095     0.317   0.402252E-14
     0.095     0.333   0.207408E-15
     0.095     0.349   0.910758E-17
     0.095     0.365   0.335814E-18
     0.095     0.381   0.102004E-19
     0.095     0.397   0.248511E-21
     0.095     0.413   0.466796E-23
     0.095     0.429   0.634564E-25
     0.095     0.444   0.555578E-27
     0.095     0.460   0.235219E-29
     0.095     0.476    0.00000    
     0.095     0.492    0.00000    
     0.095     0.508    0.00000    
     0.095     0.524    0.00000    
     0.095     0.540    0.00000    
     0.095     0.556    0.00000    
     0.095     0.571    0.00000    
     0.095     0.587    0.00000    
     0.095     0.603    0.00000    
     0.095     0.619    0.00000    
     0.095     0.635    0.00000    
     0.095     0.651    0.00000    
     0.095     0.667    0.00000    
     0.095     0.683    0.00000    
     0.095     0.698    0.00000    
     0.095     0.714    0.00000    
     0.095     0.730    0.00000    
     0.095     0.746    0.00000    
     0.095     0.762    0.00000    
     0.095     0.778    0.00000    
     0.095     0.794    0.00000    
     0.095     0.810    0.00000    
     0.095     0.825    0.00000    
     0.095     0.841    0.00000    
     0.095     0.857    0.00000    
     0.095     0.873    0.00000    
     0.095     0.889    0.00000    
     0.095     0.905    0.00000    
     0.095     0.921    0.00000    
     0.095     0.937    0.00000    
     0.095     0.952    0.00000    
     0.095     0.968    0.00000    
     0.095     0.984    0.00000    
     0.095     1.000    0.00000    
     0.111     0.000   0.342020    
     0.111     0.016   0.231663    
     0.111     0.032   0.139132    
     0.111     0.048   0.735329E-01
     0.111     0.063   0.340726E-01
     0.111     0.079   0.138277E-01
     0.111     0.095   0.491830E-02
     0.111     0.111   0.153566E-02
     0.111     0.127   0.421747E-03
     0.111     0.143   0.102084E-03
     0.111     0.159   0.218164E-04
     0.111     0.175   0.412230E-05
     0.111     0.190   0.689339E-06
     0.111     0.206   0.102054E-06
     0.111     0.222   0.133730E-07
     0.111     0.238   0.154964E-08
     0.111     0.254   0.158530E-09
     0.111     0.270   0.142810E-10
     0.111     0.286   0.112882E-11
     0.111     0.302   0.779190E-13
     0.111     0.317   0.466754E-14
     0.111     0.333   0.240667E-15
     0.111     0.349   0.105680E-16
     0.111     0.365   0.389663E-18
     0.111     0.381   0.118361E-19
     0.111     0.397   0.288360E-21
     0.111     0.413   0.541648E-23
     0.111     0.429   0.736318E-25
     0.111     0.444   0.644666E-27
     0.111     0.460   0.272938E-29
     0.111     0.476    0.00000    
     0.111     0.492    0.00000    
     0.111     0.508    0.00000    
     0.111     0.524    0.00000    
     0.111     0.540    0.00000    
     0.111     0.556    0.00000    
     0.111     0.571    0.00000    
     0.111     0.587    0.00000    
     0.111     0.603    0.00000    
     0.111     0.619    0.00000    
     0.111     0.635    0.00000    
     0.111     0.651    0.00000    
     0.111     0.667    0.00000    
     0.111     0.683    0.00000    
     0.111     0.698    0.00000    
     0.111     0.714    0.00000    
     0.111     0.730    0.00000    
     0.111     0.746    0.00000    
     0.111     0.762    0.00000    
     0.111     0.778    0.00000    
     0.111     0.794    0.00000    
     0.111     0.810    0.00000    
     0.111     0.825    0.00000    
     0.111     0.841    0.00000    
     0.111     0.857    0.00000    
     0.111     0.873    0.00000    
     0.111     0.889    0.00000    
     0.111     0.905    0.00000    
     0.111     0.921    0.00000    
     0.111     0.937    0.00000    
     0.111     0.952    0.00000    
     0.111     0.968    0.00000    
     0.111     0.984    0.00000    
     0.111     1.000    0.00000    
     0.127     0.000   0.388435    
     0.127     0.016   0.263102    
     0.127     0.032   0.158013    
     0.127     0.048   0.835119E-01
     0.127     0.063   0.386965E-01
     0.127     0.079   0.157043E-01
     0.127     0.095   0.558575E-02
     0.127     0.111   0.174406E-02
     0.127     0.127   0.478981E-03
     0.127     0.143   0.115937E-03
     0.127     0.159   0.247770E-04
     0.127     0.175   0.468172E-05
     0.127     0.190   0.782887E-06
     0.127     0.206   0.115903E-06
     0.127     0.222   0.151878E-07
     0.127     0.238   0.175994E-08
     0.127     0.254   0.180044E-09
     0.127     0.270   0.162190E-10
     0.127     0.286   0.128201E-11
     0.127     0.302   0.884932E-13
     0.127     0.317   0.530096E-14
     0.127     0.333   0.273327E-15
     0.127     0.349   0.120022E-16
     0.127     0.365   0.442543E-18
     0.127     0.381   0.134424E-19
     0.127     0.397   0.327493E-21
     0.127     0.413   0.615154E-23
     0.127     0.429   0.836242E-25
     0.127     0.444   0.732152E-27
     0.127     0.460   0.309977E-29
     0.127     0.476    0.00000    
     0.127     0.492    0.00000    
     0.127     0.508    0.00000    
     0.127     0.524    0.00000    
     0.127     0.540    0.00000    
     0.127     0.556    0.00000    
     0.127     0.571    0.00000    
     0.127     0.587    0.00000    
     0.127     0.603    0.00000    
     0.127     0.619    0.00000    
     0.127     0.635    0.00000    
     0.127     0.651    0.00000    
     0.127     0.667    0.00000    
     0.127     0.683    0.00000    
     0.127     0.698    0.00000    
     0.127     0.714    0.00000    
     0.127     0.730    0.00000    
     0.127     0.746    0.00000    
     0.127     0.762    0.00000    
     0.127     0.778    0.00000    
     0.127     0.794    0.00000    
     0.127     0.810    0.00000    
     0.127     0.825    0.00000    
     0.127     0.841    0.00000    
     0.127     0.857    0.00000    
     0.127     0.873    0.00000    
     0.127     0.889    0.00000    
     0.127     0.905    0.00000    
     0.127     0.921    0.00000    
     0.127     0.937    0.00000    
     0.127     0.952    0.00000    
     0.127     0.968    0.00000    
     0.127     0.984    0.00000    
     0.127     1.000    0.00000    
     0.143     0.000   0.433884    
     0.143     0.016   0.293886    
     0.143     0.032   0.176501    
     0.143     0.048   0.932832E-01
     0.143     0.063   0.432242E-01
     0.143     0.079   0.175417E-01
     0.143     0.095   0.623931E-02
     0.143     0.111   0.194812E-02
     0.143     0.127   0.535025E-03
     0.143     0.143   0.129503E-03
     0.143     0.159   0.276760E-04
     0.143     0.175   0.522951E-05
     0.143     0.190   0.874489E-06
     0.143     0.206   0.129465E-06
     0.143     0.222   0.169649E-07
     0.143     0.238   0.196587E-08
     0.143     0.254   0.201110E-09
     0.143     0.270   0.181167E-10
     0.143     0.286   0.143202E-11
     0.143     0.302   0.988474E-13
     0.143     0.317   0.592120E-14
     0.143     0.333   0.305308E-15
     0.143     0.349   0.134065E-16
     0.143     0.365   0.494323E-18
     0.143     0.381   0.150152E-19
     0.143     0.397   0.365811E-21
     0.143     0.413   0.687130E-23
     0.143     0.429   0.934087E-25
     0.143     0.444   0.817818E-27
     0.143     0.460   0.346246E-29
     0.143     0.476    0.00000    
     0.143     0.492    0.00000    
     0.143     0.508    0.00000    
     0.143     0.524    0.00000    
     0.143     0.540    0.00000    
     0.143     0.556    0.00000    
     0.143     0.571    0.00000    
     0.143     0.587    0.00000    
     0.143     0.603    0.00000    
     0.143     0.619    0.00000    
     0.143     0.635    0.00000    
     0.143     0.651    0.00000    
     0.143     0.667    0.00000    
     0.143     0.683    0.00000    
     0.143     0.698    0.00000    
     0.143     0.714    0.00000    
     0.143     0.730    0.00000    
     0.143     0.746    0.00000    
     0.143     0.762    0.00000    
     0.143     0.778    0.00000    
     0.143     0.794    0.00000    
     0.143     0.810    0.00000    
     0.143     0.825    0.00000    
     0.143     0.841    0.00000    
     0.143     0.857    0.00000    
     0.143     0.873    0.00000    
     0.143     0.889    0.00000    
     0.143     0.905    0.00000    
     0.143     0.921    0.00000    
     0.143     0.937    0.00000    
     0.143     0.952    0.00000    
     0.143     0.968    0.00000    
     0.143     0.984    0.00000    
     0.143     1.000    0.00000    
     0.159     0.000   0.478254    
     0.159     0.016   0.323940    
     0.159     0.032   0.194551    
     0.159     0.048   0.102823    
     0.159     0.063   0.476444E-01
     0.159     0.079   0.193356E-01
     0.159     0.095   0.687736E-02
     0.159     0.111   0.214734E-02
     0.159     0.127   0.589738E-03
     0.159     0.143   0.142746E-03
     0.159     0.159   0.305063E-04
     0.159     0.175   0.576429E-05
     0.159     0.190   0.963917E-06
     0.159     0.206   0.142704E-06
     0.159     0.222   0.186997E-07
     0.159     0.238   0.216690E-08
     0.159     0.254   0.221676E-09
     0.159     0.270   0.199694E-10
     0.159     0.286   0.157846E-11
     0.159     0.302   0.108956E-12
     0.159     0.317   0.652672E-14
     0.159     0.333   0.336529E-15
     0.159     0.349   0.147775E-16
     0.159     0.365   0.544873E-18
     0.159     0.381   0.165507E-19
     0.159     0.397   0.403220E-21
     0.159     0.413   0.757398E-23
     0.159     0.429   0.102961E-24
     0.159     0.444   0.901451E-27
     0.159     0.460   0.381655E-29
     0.159     0.476    0.00000    
     0.159     0.492    0.00000    
     0.159     0.508    0.00000    
     0.159     0.524    0.00000    
     0.159     0.540    0.00000    
     0.159     0.556    0.00000    
     0.159     0.571    0.00000    
     0.159     0.587    0.00000    
     0.159     0.603    0.00000    
     0.159     0.619    0.00000    
     0.159     0.635    0.00000    
     0.159     0.651    0.00000    
     0.159     0.667    0.00000    
     0.159     0.683    0.00000    
     0.159     0.698    0.00000    
     0.159     0.714    0.00000    
     0.159     0.730    0.00000    
     0.159     0.746    0.00000    
     0.159     0.762    0.00000    
     0.159     0.778    0.00000    
     0.159     0.794    0.00000    
     0.159     0.810    0.00000    
     0.159     0.825    0.00000    
     0.159     0.841    0.00000    
     0.159     0.857    0.00000    
     0.159     0.873    0.00000    
     0.159     0.889    0.00000    
     0.159     0.905    0.00000    
     0.159     0.921    0.00000    
     0.159     0.937    0.00000    
     0.159     0.952    0.00000    
     0.159     0.968    0.00000    
     0.159     0.984    0.00000    
     0.159     1.000    0.00000    
     0.175     0.000   0.521435    
     0.175     0.016   0.353188    
     0.175     0.032   0.212117    
     0.175     0.048   0.112106    
     0.175     0.063   0.519462E-01
     0.175     0.079   0.210814E-01
     0.175     0.095   0.749831E-02
     0.175     0.111   0.234122E-02
     0.175     0.127   0.642985E-03
     0.175     0.143   0.155634E-03
     0.175     0.159   0.332607E-04
     0.175     0.175   0.628475E-05
     0.175     0.190   0.105095E-05
     0.175     0.206   0.155589E-06
     0.175     0.222   0.203881E-07
     0.175     0.238   0.236255E-08
     0.175     0.254   0.241691E-09
     0.175     0.270   0.217724E-10
     0.175     0.286   0.172098E-11
     0.175     0.302   0.118793E-12
     0.175     0.317   0.711602E-14
     0.175     0.333   0.366914E-15
     0.175     0.349   0.161117E-16
     0.175     0.365   0.594070E-18
     0.175     0.381   0.180450E-19
     0.175     0.397   0.439627E-21
     0.175     0.413   0.825783E-23
     0.175     0.429   0.112257E-24
     0.175     0.444   0.982842E-27
     0.175     0.460   0.416114E-29
     0.175     0.476    0.00000    
     0.175     0.492    0.00000    
     0.175     0.508    0.00000    
     0.175     0.524    0.00000    
     0.175     0.540    0.00000    
     0.175     0.556    0.00000    
     0.175     0.571    0.00000    
     0.175     0.587    0.00000    
     0.175     0.603    0.00000    
     0.175     0.619    0.00000    
     0.175     0.635    0.00000    
     0.175     0.651    0.00000    
     0.175     0.667    0.00000    
     0.175     0.683    0.00000    
     0.175     0.698    0.00000    
     0.175     0.714    0.00000    
     0.175     0.730    0.00000    
     0.175     0.746    0.00000    
     0.175     0.762    0.00000    
     0.175     0.778    0.00000    
     0.175     0.794    0.00000    
     0.175     0.810    0.00000    
     0.175     0.825    0.00000    
     0.175     0.841    0.00000    
     0.175     0.857    0.00000    
     0.175     0.873    0.00000    
     0.175     0.889    0.00000    
     0.175     0.905    0.00000    
     0.175     0.921    0.00000    
     0.175     0.937    0.00000    
     0.175     0.952    0.00000    
     0.175     0.968    0.00000    
     0.175     0.984    0.00000    
     0.175     1.000    0.00000    
     0.190     0.000   0.563320    
     0.190     0.016   0.381558    
     0.190     0.032   0.229155    
     0.190     0.048   0.121112    
     0.190     0.063   0.561188E-01
     0.190     0.079   0.227748E-01
     0.190     0.095   0.810062E-02
     0.190     0.111   0.252929E-02
     0.190     0.127   0.694633E-03
     0.190     0.143   0.168136E-03
     0.190     0.159   0.359324E-04
     0.190     0.175   0.678958E-05
     0.190     0.190   0.113537E-05
     0.190     0.206   0.168087E-06
     0.190     0.222   0.220258E-07
     0.190     0.238   0.255232E-08
     0.190     0.254   0.261105E-09
     0.190     0.270   0.235213E-10
     0.190     0.286   0.185922E-11
     0.190     0.302   0.128336E-12
     0.190     0.317   0.768762E-14
     0.190     0.333   0.396387E-15
     0.190     0.349   0.174059E-16
     0.190     0.365   0.641789E-18
     0.190     0.381   0.194945E-19
     0.190     0.397   0.474940E-21
     0.190     0.413   0.892115E-23
     0.190     0.429   0.121274E-24
     0.190     0.444   0.106179E-26
     0.190     0.460   0.449539E-29
     0.190     0.476    0.00000    
     0.190     0.492    0.00000    
     0.190     0.508    0.00000    
     0.190     0.524    0.00000    
     0.190     0.540    0.00000    
     0.190     0.556    0.00000    
     0.190     0.571    0.00000    
     0.190     0.587    0.00000    
     0.190     0.603    0.00000    
     0.190     0.619    0.00000    
     0.190     0.635    0.00000    
     0.190     0.651    0.00000    
     0.190     0.667    0.00000    
     0.190     0.683    0.00000    
     0.190     0.698    0.00000    
     0.190     0.714    0.00000    
     0.190     0.730    0.00000    
     0.190     0.746    0.00000    
     0.190     0.762    0.00000    
     0.190     0.778    0.00000    
     0.190     0.794    0.00000    
     0.190     0.810    0.00000    
     0.190     0.825    0.00000    
     0.190     0.841    0.00000    
     0.190     0.857    0.00000    
     0.190     0.873    0.00000    
     0.190     0.889    0.00000    
     0.190     0.905    0.00000    
     0.190     0.921    0.00000    
     0.190     0.937    0.00000    
     0.190     0.952    0.00000    
     0.190     0.968    0.00000    
     0.190     0.984    0.00000    