Title="Temperature Data"
Variables="X","Y","T"
 
Zone I=   128, J=   128, F=POINT
     0.000     0.000    0.00000    
     0.000     0.008    0.00000    
     0.000     0.016    0.00000    
     0.000     0.024    0.00000    
     0.000     0.031    0.00000    
     0.000     0.039    0.00000    
     0.000     0.047    0.00000    
     0.000     0.055    0.00000    
     0.000     0.063    0.00000    
     0.000     0.071    0.00000    
     0.000     0.079    0.00000    
     0.000     0.087    0.00000    
     0.000     0.094    0.00000    
     0.000     0.102    0.00000    
     0.000     0.110    0.00000    
     0.000     0.118    0.00000    
     0.000     0.126    0.00000    
     0.000     0.134    0.00000    
     0.000     0.142    0.00000    
     0.000     0.150    0.00000    
     0.000     0.157    0.00000    
     0.000     0.165    0.00000    
     0.000     0.173    0.00000    
     0.000     0.181    0.00000    
     0.000     0.189    0.00000    
     0.000     0.197    0.00000    
     0.000     0.205    0.00000    
     0.000     0.213    0.00000    
     0.000     0.220    0.00000    
     0.000     0.228    0.00000    
     0.000     0.236    0.00000    
     0.000     0.244    0.00000    
     0.000     0.252    0.00000    
     0.000     0.260    0.00000    
     0.000     0.268    0.00000    
     0.000     0.276    0.00000    
     0.000     0.283    0.00000    
     0.000     0.291    0.00000    
     0.000     0.299    0.00000    
     0.000     0.307    0.00000    
     0.000     0.315    0.00000    
     0.000     0.323    0.00000    
     0.000     0.331    0.00000    
     0.000     0.339    0.00000    
     0.000     0.346    0.00000    
     0.000     0.354    0.00000    
     0.000     0.362    0.00000    
     0.000     0.370    0.00000    
     0.000     0.378    0.00000    
     0.000     0.386    0.00000    
     0.000     0.394    0.00000    
     0.000     0.402    0.00000    
     0.000     0.409    0.00000    
     0.000     0.417    0.00000    
     0.000     0.425    0.00000    
     0.000     0.433    0.00000    
     0.000     0.441    0.00000    
     0.000     0.449    0.00000    
     0.000     0.457    0.00000    
     0.000     0.465    0.00000    
     0.000     0.472    0.00000    
     0.000     0.480    0.00000    
     0.000     0.488    0.00000    
     0.000     0.496    0.00000    
     0.000     0.504    0.00000    
     0.000     0.512    0.00000    
     0.000     0.520    0.00000    
     0.000     0.528    0.00000    
     0.000     0.535    0.00000    
     0.000     0.543    0.00000    
     0.000     0.551    0.00000    
     0.000     0.559    0.00000    
     0.000     0.567    0.00000    
     0.000     0.575    0.00000    
     0.000     0.583    0.00000    
     0.000     0.591    0.00000    
     0.000     0.598    0.00000    
     0.000     0.606    0.00000    
     0.000     0.614    0.00000    
     0.000     0.622    0.00000    
     0.000     0.630    0.00000    
     0.000     0.638    0.00000    
     0.000     0.646    0.00000    
     0.000     0.654    0.00000    
     0.000     0.661    0.00000    
     0.000     0.669    0.00000    
     0.000     0.677    0.00000    
     0.000     0.685    0.00000    
     0.000     0.693    0.00000    
     0.000     0.701    0.00000    
     0.000     0.709    0.00000    
     0.000     0.717    0.00000    
     0.000     0.724    0.00000    
     0.000     0.732    0.00000    
     0.000     0.740    0.00000    
     0.000     0.748    0.00000    
     0.000     0.756    0.00000    
     0.000     0.764    0.00000    
     0.000     0.772    0.00000    
     0.000     0.780    0.00000    
     0.000     0.787    0.00000    
     0.000     0.795    0.00000    
     0.000     0.803    0.00000    
     0.000     0.811    0.00000    
     0.000     0.819    0.00000    
     0.000     0.827    0.00000    
     0.000     0.835    0.00000    
     0.000     0.843    0.00000    
     0.000     0.850    0.00000    
     0.000     0.858    0.00000    
     0.000     0.866    0.00000    
     0.000     0.874    0.00000    
     0.000     0.882    0.00000    
     0.000     0.890    0.00000    
     0.000     0.898    0.00000    
     0.000     0.906    0.00000    
     0.000     0.913    0.00000    
     0.000     0.921    0.00000    
     0.000     0.929    0.00000    
     0.000     0.937    0.00000    
     0.000     0.945    0.00000    
     0.000     0.953    0.00000    
     0.000     0.961    0.00000    
     0.000     0.969    0.00000    
     0.000     0.976    0.00000    
     0.000     0.984    0.00000    
     0.000     0.992    0.00000    
     0.000     1.000    0.00000    
     0.008     0.000   0.247344E-01
     0.008     0.008   0.241055E-01
     0.008     0.016   0.234913E-01
     0.008     0.024   0.228915E-01
     0.008     0.031   0.223059E-01
     0.008     0.039   0.217340E-01
     0.008     0.047   0.211756E-01
     0.008     0.055   0.206303E-01
     0.008     0.063   0.200978E-01
     0.008     0.071   0.195778E-01
     0.008     0.079   0.190702E-01
     0.008     0.087   0.185744E-01
     0.008     0.094   0.180904E-01
     0.008     0.102   0.176177E-01
     0.008     0.110   0.171563E-01
     0.008     0.118   0.167057E-01
     0.008     0.126   0.162658E-01
     0.008     0.134   0.158362E-01
     0.008     0.142   0.154169E-01
     0.008     0.150   0.150075E-01
     0.008     0.157   0.146078E-01
     0.008     0.165   0.142176E-01
     0.008     0.173   0.138367E-01
     0.008     0.181   0.134649E-01
     0.008     0.189   0.131020E-01
     0.008     0.197   0.127476E-01
     0.008     0.205   0.124019E-01
     0.008     0.213   0.120643E-01
     0.008     0.220   0.117349E-01
     0.008     0.228   0.114134E-01
     0.008     0.236   0.110997E-01
     0.008     0.244   0.107934E-01
     0.008     0.252   0.104947E-01
     0.008     0.260   0.102031E-01
     0.008     0.268   0.991875E-02
     0.008     0.276   0.964115E-02
     0.008     0.283   0.937046E-02
     0.008     0.291   0.910625E-02
     0.008     0.299   0.884866E-02
     0.008     0.307   0.859724E-02
     0.008     0.315   0.835218E-02
     0.008     0.323   0.811301E-02
     0.008     0.331   0.787991E-02
     0.008     0.339   0.765245E-02
     0.008     0.346   0.743080E-02
     0.008     0.354   0.721453E-02
     0.008     0.362   0.700383E-02
     0.008     0.370   0.679826E-02
     0.008     0.378   0.659804E-02
     0.008     0.386   0.640270E-02
     0.008     0.394   0.621247E-02
     0.008     0.402   0.602691E-02
     0.008     0.409   0.584625E-02
     0.008     0.417   0.567004E-02
     0.008     0.425   0.549852E-02
     0.008     0.433   0.533124E-02
     0.008     0.441   0.516845E-02
     0.008     0.449   0.500970E-02
     0.008     0.457   0.485524E-02
     0.008     0.465   0.470464E-02
     0.008     0.472   0.455815E-02
     0.008     0.480   0.441533E-02
     0.008     0.488   0.427643E-02
     0.008     0.496   0.414103E-02
     0.008     0.504   0.400938E-02
     0.008     0.512   0.388105E-02
     0.008     0.520   0.375631E-02
     0.008     0.528   0.363474E-02
     0.008     0.535   0.351658E-02
     0.008     0.543   0.340143E-02
     0.008     0.551   0.328954E-02
     0.008     0.559   0.318051E-02
     0.008     0.567   0.307459E-02
     0.008     0.575   0.297138E-02
     0.008     0.583   0.287113E-02
     0.008     0.591   0.277346E-02
     0.008     0.598   0.267860E-02
     0.008     0.606   0.258617E-02
     0.008     0.614   0.249643E-02
     0.008     0.622   0.240898E-02
     0.008     0.630   0.232409E-02
     0.008     0.638   0.224137E-02
     0.008     0.646   0.216106E-02
     0.008     0.654   0.208280E-02
     0.008     0.661   0.200683E-02
     0.008     0.669   0.193280E-02
     0.008     0.677   0.186092E-02
     0.008     0.685   0.179086E-02
     0.008     0.693   0.172284E-02
     0.008     0.701   0.165654E-02
     0.008     0.709   0.159215E-02
     0.008     0.717   0.152936E-02
     0.008     0.724   0.146837E-02
     0.008     0.732   0.140889E-02
     0.008     0.740   0.135109E-02
     0.008     0.748   0.129469E-02
     0.008     0.756   0.123986E-02
     0.008     0.764   0.118633E-02
     0.008     0.772   0.113427E-02
     0.008     0.780   0.108341E-02
     0.008     0.787   0.103391E-02
     0.008     0.795   0.985520E-03
     0.008     0.803   0.938382E-03
     0.008     0.811   0.892265E-03
     0.008     0.819   0.847296E-03
     0.008     0.827   0.803259E-03
     0.008     0.835   0.760268E-03
     0.008     0.843   0.718122E-03
     0.008     0.850   0.676922E-03
     0.008     0.858   0.636481E-03
     0.008     0.866   0.596887E-03
     0.008     0.874   0.557968E-03
     0.008     0.882   0.519799E-03
     0.008     0.890   0.482223E-03
     0.008     0.898   0.445300E-03
     0.008     0.906   0.408888E-03
     0.008     0.913   0.373035E-03
     0.008     0.921   0.337612E-03
     0.008     0.929   0.302654E-03
     0.008     0.937   0.268046E-03
     0.008     0.945   0.233809E-03
     0.008     0.953   0.199844E-03
     0.008     0.961   0.166157E-03
     0.008     0.969   0.132663E-03
     0.008     0.976   0.993543E-04
     0.008     0.984   0.661618E-04
     0.008     0.992   0.330615E-04
     0.008     1.000    0.00000    
     0.016     0.000   0.494537E-01
     0.016     0.008   0.481962E-01
     0.016     0.016   0.469682E-01
     0.016     0.024   0.457691E-01
     0.016     0.031   0.445981E-01
     0.016     0.039   0.434547E-01
     0.016     0.047   0.423382E-01
     0.016     0.055   0.412479E-01
     0.016     0.063   0.401833E-01
     0.016     0.071   0.391438E-01
     0.016     0.079   0.381286E-01
     0.016     0.087   0.371375E-01
     0.016     0.094   0.361696E-01
     0.016     0.102   0.352247E-01
     0.016     0.110   0.343020E-01
     0.016     0.118   0.334012E-01
     0.016     0.126   0.325215E-01
     0.016     0.134   0.316628E-01
     0.016     0.142   0.308243E-01
     0.016     0.150   0.300058E-01
     0.016     0.157   0.292066E-01
     0.016     0.165   0.284266E-01
     0.016     0.173   0.276649E-01
     0.016     0.181   0.269216E-01
     0.016     0.189   0.261958E-01
     0.016     0.197   0.254875E-01
     0.016     0.205   0.247960E-01
     0.016     0.213   0.241213E-01
     0.016     0.220   0.234625E-01
     0.016     0.228   0.228199E-01
     0.016     0.236   0.221924E-01
     0.016     0.244   0.215804E-01
     0.016     0.252   0.209829E-01
     0.016     0.260   0.204002E-01
     0.016     0.268   0.198313E-01
     0.016     0.276   0.192765E-01
     0.016     0.283   0.187350E-01
     0.016     0.291   0.182071E-01
     0.016     0.299   0.176917E-01
     0.016     0.307   0.171894E-01
     0.016     0.315   0.166991E-01
     0.016     0.323   0.162212E-01
     0.016     0.331   0.157548E-01
     0.016     0.339   0.153004E-01
     0.016     0.346   0.148569E-01
     0.016     0.354   0.144248E-01
     0.016     0.362   0.140032E-01
     0.016     0.370   0.135925E-01
     0.016     0.378   0.131919E-01
     0.016     0.386   0.128016E-01
     0.016     0.394   0.124210E-01
     0.016     0.402   0.120503E-01
     0.016     0.409   0.116888E-01
     0.016     0.417   0.113368E-01
     0.016     0.425   0.109935E-01
     0.016     0.433   0.106594E-01
     0.016     0.441   0.103336E-01
     0.016     0.449   0.100165E-01
     0.016     0.457   0.970734E-02
     0.016     0.465   0.940658E-02
     0.016     0.472   0.911334E-02
     0.016     0.480   0.882812E-02
     0.016     0.488   0.855007E-02
     0.016     0.496   0.827969E-02
     0.016     0.504   0.801613E-02
     0.016     0.512   0.775990E-02
     0.016     0.520   0.751016E-02
     0.016     0.528   0.726742E-02
     0.016     0.535   0.703084E-02
     0.016     0.543   0.680094E-02
     0.016     0.551   0.657691E-02
     0.016     0.559   0.635924E-02
     0.016     0.567   0.614714E-02
     0.016     0.575   0.594111E-02
     0.016     0.583   0.574035E-02
     0.016     0.591   0.554537E-02
     0.016     0.598   0.535540E-02
     0.016     0.606   0.517092E-02
     0.016     0.614   0.499117E-02
     0.016     0.622   0.481665E-02
     0.016     0.630   0.464660E-02
     0.016     0.638   0.448151E-02
     0.016     0.646   0.432064E-02
     0.016     0.654   0.416447E-02
     0.016     0.661   0.401229E-02
     0.016     0.669   0.386455E-02
     0.016     0.677   0.372056E-02
     0.016     0.685   0.358077E-02
     0.016     0.693   0.344450E-02
     0.016     0.701   0.331219E-02
     0.016     0.709   0.318320E-02
     0.016     0.717   0.305791E-02
     0.016     0.724   0.293573E-02
     0.016     0.732   0.281703E-02
     0.016     0.740   0.270123E-02
     0.016     0.748   0.258869E-02
     0.016     0.756   0.247885E-02
     0.016     0.764   0.237204E-02
     0.016     0.772   0.226774E-02
     0.016     0.780   0.216626E-02
     0.016     0.787   0.206709E-02
     0.016     0.795   0.197053E-02
     0.016     0.803   0.187610E-02
     0.016     0.811   0.178407E-02
     0.016     0.819   0.169399E-02
     0.016     0.827   0.160611E-02
     0.016     0.835   0.152000E-02
     0.016     0.843   0.143588E-02
     0.016     0.850   0.135336E-02
     0.016     0.858   0.127264E-02
     0.016     0.866   0.119335E-02
     0.016     0.874   0.111565E-02
     0.016     0.882   0.103923E-02
     0.016     0.890   0.964201E-03
     0.016     0.898   0.890280E-03
     0.016     0.906   0.817570E-03
     0.016     0.913   0.745802E-03
     0.016     0.921   0.675055E-03
     0.016     0.929   0.605089E-03
     0.016     0.937   0.535957E-03
     0.016     0.945   0.467449E-03
     0.016     0.953   0.399588E-03
     0.016     0.961   0.332193E-03
     0.016     0.969   0.265260E-03
     0.016     0.976   0.198637E-03
     0.016     0.984   0.132290E-03
     0.016     0.992   0.660991E-04
     0.016     1.000    0.00000    
     0.024     0.000   0.741428E-01
     0.024     0.008   0.722574E-01
     0.024     0.016   0.704164E-01
     0.024     0.024   0.686186E-01
     0.024     0.031   0.668631E-01
     0.024     0.039   0.651488E-01
     0.024     0.047   0.634749E-01
     0.024     0.055   0.618403E-01
     0.024     0.063   0.602443E-01
     0.024     0.071   0.586856E-01
     0.024     0.079   0.571639E-01
     0.024     0.087   0.556778E-01
     0.024     0.094   0.542269E-01
     0.024     0.102   0.528100E-01
     0.024     0.110   0.514268E-01
     0.024     0.118   0.500761E-01
     0.024     0.126   0.487575E-01
     0.024     0.134   0.474699E-01
     0.024     0.142   0.462130E-01
     0.024     0.150   0.449857E-01
     0.024     0.157   0.437877E-01
     0.024     0.165   0.426180E-01
     0.024     0.173   0.414764E-01
     0.024     0.181   0.403616E-01
     0.024     0.189   0.392738E-01
     0.024     0.197   0.382116E-01
     0.024     0.205   0.371752E-01
     0.024     0.213   0.361633E-01
     0.024     0.220   0.351761E-01
     0.024     0.228   0.342122E-01
     0.024     0.236   0.332719E-01
     0.024     0.244   0.323539E-01
     0.024     0.252   0.314585E-01
     0.024     0.260   0.305844E-01
     0.024     0.268   0.297320E-01
     0.024     0.276   0.288998E-01
     0.024     0.283   0.280884E-01
     0.024     0.291   0.272965E-01
     0.024     0.299   0.265243E-01
     0.024     0.307   0.257707E-01
     0.024     0.315   0.250361E-01
     0.024     0.323   0.243192E-01
     0.024     0.331   0.236205E-01
     0.024     0.339   0.229386E-01
     0.024     0.346   0.222742E-01
     0.024     0.354   0.216259E-01
     0.024     0.362   0.209944E-01
     0.024     0.370   0.203782E-01
     0.024     0.378   0.197780E-01
     0.024     0.386   0.191924E-01
     0.024     0.394   0.186222E-01
     0.024     0.402   0.180660E-01
     0.024     0.409   0.175245E-01
     0.024     0.417   0.169962E-01
     0.024     0.425   0.164821E-01
     0.024     0.433   0.159807E-01
     0.024     0.441   0.154927E-01
     0.024     0.449   0.150168E-01
     0.024     0.457   0.145539E-01
     0.024     0.465   0.141024E-01
     0.024     0.472   0.136633E-01
     0.024     0.480   0.132352E-01
     0.024     0.488   0.128188E-01
     0.024     0.496   0.124129E-01
     0.024     0.504   0.120183E-01
     0.024     0.512   0.116337E-01
     0.024     0.520   0.112597E-01
     0.024     0.528   0.108953E-01
     0.024     0.535   0.105411E-01
     0.024     0.543   0.101960E-01
     0.024     0.551   0.986058E-02
     0.024     0.559   0.953375E-02
     0.024     0.567   0.921625E-02
     0.024     0.575   0.890687E-02
     0.024     0.583   0.860638E-02
     0.024     0.591   0.831358E-02
     0.024     0.598   0.802924E-02
     0.024     0.606   0.775219E-02
     0.024     0.614   0.748317E-02
     0.024     0.622   0.722106E-02
     0.024     0.630   0.696657E-02
     0.024     0.638   0.671861E-02
     0.024     0.646   0.647788E-02
     0.024     0.654   0.624331E-02
     0.024     0.661   0.601558E-02
     0.024     0.669   0.579366E-02
     0.024     0.677   0.557820E-02
     0.024     0.685   0.536821E-02
     0.024     0.693   0.516432E-02
     0.024     0.701   0.496556E-02
     0.024     0.709   0.477255E-02
     0.024     0.717   0.458434E-02
     0.024     0.724   0.440153E-02
     0.024     0.732   0.422322E-02
     0.024     0.740   0.404995E-02
     0.024     0.748   0.388089E-02
     0.024     0.756   0.371654E-02
     0.024     0.764   0.355609E-02
     0.024     0.772   0.340003E-02
     0.024     0.780   0.324758E-02
     0.024     0.787   0.309920E-02
     0.024     0.795   0.295415E-02
     0.024     0.803   0.281285E-02
     0.024     0.811   0.267461E-02
     0.024     0.819   0.253982E-02
     0.024     0.827   0.240781E-02
     0.024     0.835   0.227894E-02
     0.024     0.843   0.215261E-02
     0.024     0.850   0.202911E-02
     0.024     0.858   0.190789E-02
     0.024     0.866   0.178920E-02
     0.024     0.874   0.167254E-02
     0.024     0.882   0.155813E-02
     0.024     0.890   0.144549E-02
     0.024     0.898   0.133481E-02
     0.024     0.906   0.122566E-02
     0.024     0.913   0.111819E-02
     0.024     0.921   0.101201E-02
     0.024     0.929   0.907220E-03
     0.024     0.937   0.803482E-03
     0.024     0.945   0.700854E-03
     0.024     0.953   0.599043E-03
     0.024     0.961   0.498063E-03
     0.024     0.969   0.397665E-03
     0.024     0.976   0.297820E-03
     0.024     0.984   0.198323E-03
     0.024     0.992   0.991036E-04
     0.024     1.000    0.00000    
     0.031     0.000   0.987864E-01
     0.031     0.008   0.962744E-01
     0.031     0.016   0.938215E-01
     0.031     0.024   0.914262E-01
     0.031     0.031   0.890871E-01
     0.031     0.039   0.868031E-01
     0.031     0.047   0.845728E-01
     0.031     0.055   0.823949E-01
     0.031     0.063   0.802682E-01
     0.031     0.071   0.781917E-01
     0.031     0.079   0.761640E-01
     0.031     0.087   0.741841E-01
     0.031     0.094   0.722508E-01
     0.031     0.102   0.703632E-01
     0.031     0.110   0.685200E-01
     0.031     0.118   0.667206E-01
     0.031     0.126   0.649634E-01
     0.031     0.134   0.632482E-01
     0.031     0.142   0.615732E-01
     0.031     0.150   0.599382E-01
     0.031     0.157   0.583418E-01
     0.031     0.165   0.567836E-01
     0.031     0.173   0.552621E-01
     0.031     0.181   0.537773E-01
     0.031     0.189   0.523275E-01
     0.031     0.197   0.509127E-01
     0.031     0.205   0.495314E-01
     0.031     0.213   0.481836E-01
     0.031     0.220   0.468677E-01
     0.031     0.228   0.455839E-01
     0.031     0.236   0.443306E-01
     0.031     0.244   0.431080E-01
     0.031     0.252   0.419145E-01
     0.031     0.260   0.407504E-01
     0.031     0.268   0.396140E-01
     0.031     0.276   0.385059E-01
     0.031     0.283   0.374242E-01
     0.031     0.291   0.363696E-01
     0.031     0.299   0.353402E-01
     0.031     0.307   0.343367E-01
     0.031     0.315   0.333573E-01
     0.031     0.323   0.324027E-01
     0.031     0.331   0.314711E-01
     0.031     0.339   0.305633E-01
     0.031     0.346   0.296774E-01
     0.031     0.354   0.288143E-01
     0.031     0.362   0.279722E-01
     0.031     0.370   0.271518E-01
     0.031     0.378   0.263514E-01
     0.031     0.386   0.255720E-01
     0.031     0.394   0.248116E-01
     0.031     0.402   0.240711E-01
     0.031     0.409   0.233489E-01
     0.031     0.417   0.226458E-01
     0.031     0.425   0.219601E-01
     0.031     0.433   0.212927E-01
     0.031     0.441   0.206418E-01
     0.031     0.449   0.200085E-01
     0.031     0.457   0.193909E-01
     0.031     0.465   0.187901E-01
     0.031     0.472   0.182044E-01
     0.031     0.480   0.176346E-01
     0.031     0.488   0.170792E-01
     0.031     0.496   0.165391E-01
     0.031     0.504   0.160126E-01
     0.031     0.512   0.155008E-01
     0.031     0.520   0.150019E-01
     0.031     0.528   0.145170E-01
     0.031     0.535   0.140445E-01
     0.031     0.543   0.135852E-01
     0.031     0.551   0.131377E-01
     0.031     0.559   0.127029E-01
     0.031     0.567   0.122792E-01
     0.031     0.575   0.118677E-01
     0.031     0.583   0.114667E-01
     0.031     0.591   0.110772E-01
     0.031     0.598   0.106977E-01
     0.031     0.606   0.103292E-01
     0.031     0.614   0.997013E-02
     0.031     0.622   0.962151E-02
     0.031     0.630   0.928183E-02
     0.031     0.638   0.895205E-02
     0.031     0.646   0.863071E-02
     0.031     0.654   0.831875E-02
     0.031     0.661   0.801476E-02
     0.031     0.669   0.771963E-02
     0.031     0.677   0.743202E-02
     0.031     0.685   0.715277E-02
     0.031     0.693   0.688058E-02
     0.031     0.701   0.661628E-02
     0.031     0.709   0.635860E-02
     0.031     0.717   0.610834E-02
     0.031     0.724   0.586428E-02
     0.031     0.732   0.562717E-02
     0.031     0.740   0.539586E-02
     0.031     0.748   0.517105E-02
     0.031     0.756   0.495163E-02
     0.031     0.764   0.473828E-02
     0.031     0.772   0.452993E-02
     0.031     0.780   0.432721E-02
     0.031     0.787   0.412912E-02
     0.031     0.795   0.393623E-02
     0.031     0.803   0.374761E-02
     0.031     0.811   0.356377E-02
     0.031     0.819   0.338384E-02
     0.031     0.827   0.320828E-02
     0.031     0.835   0.303627E-02
     0.031     0.843   0.286824E-02
     0.031     0.850   0.270341E-02
     0.031     0.858   0.254216E-02
     0.031     0.866   0.238377E-02
     0.031     0.874   0.222858E-02
     0.031     0.882   0.207591E-02
     0.031     0.890   0.192604E-02
     0.031     0.898   0.177838E-02
     0.031     0.906   0.163314E-02
     0.031     0.913   0.148978E-02
     0.031     0.921   0.134846E-02
     0.031     0.929   0.120870E-02
     0.031     0.937   0.107060E-02
     0.031     0.945   0.933754E-03
     0.031     0.953   0.798198E-03
     0.031     0.961   0.663573E-03
     0.031     0.969   0.529870E-03
     0.031     0.976   0.396787E-03
     0.031     0.984   0.264257E-03
     0.031     0.992   0.132037E-03
     0.031     1.000    0.00000    
     0.039     0.000   0.123370    
     0.039     0.008   0.120233    
     0.039     0.016   0.117169    
     0.039     0.024   0.114178    
     0.039     0.031   0.111257    
     0.039     0.039   0.108404    
     0.039     0.047   0.105619    
     0.039     0.055   0.102899    
     0.039     0.063   0.100243    
     0.039     0.071   0.976498E-01
     0.039     0.079   0.951176E-01
     0.039     0.087   0.926449E-01
     0.039     0.094   0.902307E-01
     0.039     0.102   0.878731E-01
     0.039     0.110   0.855715E-01
     0.039     0.118   0.833240E-01
     0.039     0.126   0.811299E-01
     0.039     0.134   0.789874E-01
     0.039     0.142   0.768960E-01
     0.039     0.150   0.748538E-01
     0.039     0.157   0.728605E-01
     0.039     0.165   0.709141E-01
     0.039     0.173   0.690145E-01
     0.039     0.181   0.671596E-01
     0.039     0.189   0.653495E-01
     0.039     0.197   0.635822E-01
     0.039     0.205   0.618576E-01
     0.039     0.213   0.601739E-01
     0.039     0.220   0.585311E-01
     0.039     0.228   0.569272E-01
     0.039     0.236   0.553626E-01
     0.039     0.244   0.538352E-01
     0.039     0.252   0.523453E-01
     0.039     0.260   0.508909E-01
     0.039     0.268   0.494724E-01
     0.039     0.276   0.480878E-01
     0.039     0.283   0.467377E-01
     0.039     0.291   0.454199E-01
     0.039     0.299   0.441351E-01
     0.039     0.307   0.428811E-01
     0.039     0.315   0.416587E-01
     0.039     0.323   0.404658E-01
     0.039     0.331   0.393032E-01
     0.039     0.339   0.381686E-01
     0.039     0.346   0.370631E-01
     0.039     0.354   0.359844E-01
     0.039     0.362   0.349335E-01
     0.039     0.370   0.339082E-01
     0.039     0.378   0.329095E-01
     0.039     0.386   0.319352E-01
     0.039     0.394   0.309864E-01
     0.039     0.402   0.300609E-01
     0.039     0.409   0.291598E-01
     0.039     0.417   0.282809E-01
     0.039     0.425   0.274254E-01
     0.039     0.433   0.265910E-01
     0.039     0.441   0.257790E-01
     0.039     0.449   0.249872E-01
     0.039     0.457   0.242168E-01
     0.039     0.465   0.234657E-01
     0.039     0.472   0.227350E-01
     0.039     0.480   0.220226E-01
     0.039     0.488   0.213298E-01
     0.039     0.496   0.206545E-01
     0.039     0.504   0.199979E-01
     0.039     0.512   0.193578E-01
     0.039     0.520   0.187356E-01
     0.039     0.528   0.181292E-01
     0.039     0.535   0.175399E-01
     0.039     0.543   0.169655E-01
     0.039     0.551   0.164075E-01
     0.039     0.559   0.158637E-01
     0.039     0.567   0.153354E-01
     0.039     0.575   0.148206E-01
     0.039     0.583   0.143206E-01
     0.039     0.591   0.138334E-01
     0.039     0.598   0.133602E-01
     0.039     0.606   0.128992E-01
     0.039     0.614   0.124516E-01
     0.039     0.622   0.120155E-01
     0.039     0.630   0.115920E-01
     0.039     0.638   0.111794E-01
     0.039     0.646   0.107788E-01
     0.039     0.654   0.103885E-01
     0.039     0.661   0.100096E-01
     0.039     0.669   0.964034E-02
     0.039     0.677   0.928183E-02
     0.039     0.685   0.893242E-02
     0.039     0.693   0.859315E-02
     0.039     0.701   0.826243E-02
     0.039     0.709   0.794126E-02
     0.039     0.717   0.762810E-02
     0.039     0.724   0.732391E-02
     0.039     0.732   0.702721E-02
     0.039     0.740   0.673891E-02
     0.039     0.748   0.645760E-02
     0.039     0.756   0.618412E-02
     0.039     0.764   0.591715E-02
     0.039     0.772   0.565746E-02
     0.039     0.780   0.540380E-02
     0.039     0.787   0.515690E-02
     0.039     0.795   0.491555E-02
     0.039     0.803   0.468043E-02
     0.039     0.811   0.445041E-02
     0.039     0.819   0.422612E-02
     0.039     0.827   0.400647E-02
     0.039     0.835   0.379204E-02
     0.039     0.843   0.358183E-02
     0.039     0.850   0.337633E-02
     0.039     0.858   0.317462E-02
     0.039     0.866   0.297713E-02
     0.039     0.874   0.278302E-02
     0.039     0.882   0.259264E-02
     0.039     0.890   0.240522E-02
     0.039     0.898   0.222105E-02
     0.039     0.906   0.203944E-02
     0.039     0.913   0.186061E-02
     0.039     0.921   0.168393E-02
     0.039     0.929   0.150957E-02
     0.039     0.937   0.133695E-02
     0.039     0.945   0.116618E-02
     0.039     0.953   0.996777E-03
     0.039     0.961   0.828750E-03
     0.039     0.969   0.661693E-03
     0.039     0.976   0.495556E-03
     0.039     0.984   0.330000E-03
     0.039     0.992   0.164903E-03
     0.039     1.000    0.00000    
     0.047     0.000   0.147877    
     0.047     0.008   0.144117    
     0.047     0.016   0.140445    
     0.047     0.024   0.136860    
     0.047     0.031   0.133358    
     0.047     0.039   0.129939    
     0.047     0.047   0.126600    
     0.047     0.055   0.123340    
     0.047     0.063   0.120157    
     0.047     0.071   0.117048    
     0.047     0.079   0.114013    
     0.047     0.087   0.111049    
     0.047     0.094   0.108155    
     0.047     0.102   0.105330    
     0.047     0.110   0.102570    
     0.047     0.118   0.998768E-01
     0.047     0.126   0.972464E-01
     0.047     0.134   0.946787E-01
     0.047     0.142   0.921714E-01
     0.047     0.150   0.897240E-01
     0.047     0.157   0.873342E-01
     0.047     0.165   0.850017E-01
     0.047     0.173   0.827241E-01
     0.047     0.181   0.805014E-01
     0.047     0.189   0.783311E-01
     0.047     0.197   0.762133E-01
     0.047     0.205   0.741455E-01
     0.047     0.213   0.721279E-01
     0.047     0.220   0.701581E-01
     0.047     0.228   0.682364E-01
     0.047     0.236   0.663602E-01
     0.047     0.244   0.645301E-01
     0.047     0.252   0.627434E-01
     0.047     0.260   0.610009E-01
     0.047     0.268   0.592998E-01
     0.047     0.276   0.576410E-01
     0.047     0.283   0.560218E-01
     0.047     0.291   0.544431E-01
     0.047     0.299   0.529022E-01
     0.047     0.307   0.514000E-01
     0.047     0.315   0.499339E-01
     0.047     0.323   0.485049E-01
     0.047     0.331   0.471104E-01
     0.047     0.339   0.457514E-01
     0.047     0.346   0.444253E-01
     0.047     0.354   0.431333E-01
     0.047     0.362   0.418727E-01
     0.047     0.370   0.406446E-01
     0.047     0.378   0.394465E-01
     0.047     0.386   0.382797E-01
     0.047     0.394   0.371414E-01
     0.047     0.402   0.360330E-01
     0.047     0.409   0.349519E-01
     0.047     0.417   0.338995E-01
     0.047     0.425   0.328730E-01
     0.047     0.433   0.318739E-01
     0.047     0.441   0.308996E-01
     0.047     0.449   0.299515E-01
     0.047     0.457   0.290271E-01
     0.047     0.465   0.281277E-01
     0.047     0.472   0.272509E-01
     0.047     0.480   0.263980E-01
     0.047     0.488   0.255666E-01