Title="Temperature Data"
Variables="X","Y","T"
 
Zone I=   100, J=   100, F=POINT
     0.000     0.000   0.692304-309
     0.000     0.010   0.466992-309
     0.000     0.020    0.00000    
     0.000     0.030    0.00000    
     0.000     0.040   0.601347-153
     0.000     0.051   0.603687-153
     0.000     0.061   0.860243E-66
     0.000     0.071   0.139737E-75
     0.000     0.081   0.655491-259
     0.000     0.091   0.130371E-75
     0.000     0.101   0.696312E-76
     0.000     0.111   0.601347-153
     0.000     0.121   0.120737-152
     0.000     0.131   0.601347-153
     0.000     0.141   0.603687-153
     0.000     0.152   0.934427E-66
     0.000     0.162   0.139737E-75
     0.000     0.172   0.655491-259
     0.000     0.182   0.130371E-75
     0.000     0.192   0.696312E-76
     0.000     0.202   0.601347-153
     0.000     0.212   0.120737-152
     0.000     0.222   0.601347-153
     0.000     0.232   0.603687-153
     0.000     0.242   0.637836E-66
     0.000     0.253   0.139737E-75
     0.000     0.263   0.655491-259
     0.000     0.273   0.130371E-75
     0.000     0.283   0.696312E-76
     0.000     0.293   0.601347-153
     0.000     0.303   0.120737-152
     0.000     0.313   0.601347-153
     0.000     0.323   0.603687-153
     0.000     0.333   0.712020E-66
     0.000     0.343   0.139737E-75
     0.000     0.354   0.655491-259
     0.000     0.364   0.130371E-75
     0.000     0.374   0.696312E-76
     0.000     0.384   0.601347-153
     0.000     0.394   0.120737-152
     0.000     0.404   0.601347-153
     0.000     0.414   0.603687-153
     0.000     0.424   0.515247E-61
     0.000     0.434   0.139737E-75
     0.000     0.444   0.655491-259
     0.000     0.455   0.130371E-75
     0.000     0.465   0.696312E-76
     0.000     0.475   0.601347-153
     0.000     0.485   0.120737-152
     0.000     0.495   0.601347-153
     0.000     0.505   0.603687-153
     0.000     0.515   0.563864E-61
     0.000     0.525   0.139737E-75
     0.000     0.535   0.655491-259
     0.000     0.545   0.130371E-75
     0.000     0.556   0.696312E-76
     0.000     0.566   0.601347-153
     0.000     0.576   0.120737-152
     0.000     0.586   0.601347-153
     0.000     0.596   0.603687-153
     0.000     0.606   0.612481E-61
     0.000     0.616   0.139737E-75
     0.000     0.626   0.655491-259
     0.000     0.636   0.130371E-75
     0.000     0.646   0.696312E-76
     0.000     0.657   0.601347-153
     0.000     0.667   0.120737-152
     0.000     0.677   0.601347-153
     0.000     0.687   0.603687-153
     0.000     0.697   0.418107E-61
     0.000     0.707   0.139737E-75
     0.000     0.717   0.655491-259
     0.000     0.727   0.130371E-75
     0.000     0.737   0.696312E-76
     0.000     0.747   0.601347-153
     0.000     0.758   0.120737-152
     0.000     0.768   0.601347-153
     0.000     0.778   0.603687-153
     0.000     0.788   0.466724E-61
     0.000     0.798   0.139737E-75
     0.000     0.808   0.655491-259
     0.000     0.818   0.130371E-75
     0.000     0.828   0.696312E-76
     0.000     0.838   0.601347-153
     0.000     0.848   0.120737-152
     0.000     0.859   0.601347-153
     0.000     0.869   0.603687-153
     0.000     0.879   0.337734E-56
     0.000     0.889   0.139737E-75
     0.000     0.899   0.655491-259
     0.000     0.909   0.130371E-75
     0.000     0.919   0.696312E-76
     0.000     0.929   0.601347-153
     0.000     0.939   0.120737-152
     0.000     0.949   0.601347-153
     0.000     0.960   0.603687-153
     0.000     0.970   0.369596E-56
     0.000     0.980   0.139737E-75
     0.000     0.990   0.655491-259
     0.000     1.000   0.130371E-75
     0.010     0.000   0.696312E-76
     0.010     0.010   0.206008E-05
     0.010     0.020   0.154942E-06
     0.010     0.030   0.582367E-08
     0.010     0.040   0.145808E-09
     0.010     0.051   0.273546E-11
     0.010     0.061   0.410164E-13
     0.010     0.071   0.512015E-15
     0.010     0.081   0.547310E-17
     0.010     0.091   0.511402E-19
     0.010     0.101   0.424332E-21
     0.010     0.111   0.316561E-23
     0.010     0.121   0.214477E-25
     0.010     0.131   0.133070E-27
     0.010     0.141   0.761341E-30
     0.010     0.152   0.404068E-32
     0.010     0.162   0.199953E-34
     0.010     0.172   0.926688E-37
     0.010     0.182   0.403803E-39
     0.010     0.192   0.166013E-41
     0.010     0.202   0.645937E-44
     0.010     0.212   0.238518E-46
     0.010     0.222   0.837953E-49
     0.010     0.232   0.280719E-51
     0.010     0.242   0.898620E-54
     0.010     0.253   0.275393E-56
     0.010     0.263   0.809387E-59
     0.010     0.273   0.228497E-61
     0.010     0.283   0.620541E-64
     0.010     0.293   0.162338E-66
     0.010     0.303   0.409940E-69
     0.010     0.313   0.225461E-70
     0.010     0.323   0.109964E-68
     0.010     0.333   0.381305E-67
     0.010     0.343   0.109963E-68
     0.010     0.354   0.215482E-70
     0.010     0.364   0.341959E-72
     0.010     0.374   0.271803E-71
     0.010     0.384   0.274010E-69
     0.010     0.394   0.230770E-67
     0.010     0.404   0.155930E-65
     0.010     0.414   0.795739E-64
     0.010     0.424   0.275928E-62
     0.010     0.434   0.795739E-64
     0.010     0.444   0.155930E-65
     0.010     0.455   0.230771E-67
     0.010     0.465   0.276980E-69
     0.010     0.475   0.302579E-69
     0.010     0.485   0.252545E-67
     0.010     0.495   0.170644E-65
     0.010     0.505   0.870823E-64
     0.010     0.515   0.301964E-62
     0.010     0.525   0.870823E-64
     0.010     0.535   0.170644E-65
     0.010     0.545   0.252546E-67
     0.010     0.556   0.303091E-69
     0.010     0.566   0.328690E-69
     0.010     0.576   0.274320E-67
     0.010     0.586   0.185357E-65
     0.010     0.596   0.945907E-64
     0.010     0.606   0.328000E-62
     0.010     0.616   0.945907E-64
     0.010     0.626   0.185357E-65
     0.010     0.636   0.274320E-67
     0.010     0.646   0.327922E-69
     0.010     0.657   0.225577E-69
     0.010     0.667   0.187263E-67
     0.010     0.677   0.126533E-65
     0.010     0.687   0.645718E-64
     0.010     0.697   0.223907E-62
     0.010     0.707   0.645718E-64
     0.010     0.717   0.126533E-65
     0.010     0.727   0.187263E-67
     0.010     0.737   0.224809E-69
     0.010     0.747   0.250408E-69
     0.010     0.758   0.209038E-67
     0.010     0.768   0.141246E-65
     0.010     0.778   0.720802E-64
     0.010     0.788   0.249943E-62
     0.010     0.798   0.720802E-64
     0.010     0.808   0.141247E-65
     0.010     0.818   0.224147E-67
     0.010     0.828   0.178162E-66
     0.010     0.838   0.179608E-64
     0.010     0.848   0.151266E-62
     0.010     0.859   0.102209E-60
     0.010     0.869   0.521592E-59
     0.010     0.879   0.180866E-57
     0.010     0.889   0.521592E-59
     0.010     0.899   0.102209E-60
     0.010     0.909   0.151266E-62
     0.010     0.919   0.181555E-64
     0.010     0.929   0.198331E-64
     0.010     0.939   0.165536E-62
     0.010     0.949   0.111852E-60
     0.010     0.960   0.570799E-59
     0.010     0.970   0.197928E-57
     0.010     0.980   0.570799E-59
     0.010     0.990   0.111832E-60
     0.010     1.000   0.696312E-76
     0.020     0.000   0.601347-153
     0.020     0.010   0.411809E-05
     0.020     0.020   0.309729E-06
     0.020     0.030   0.116415E-07
     0.020     0.040   0.291468E-09
     0.020     0.051   0.546816E-11
     0.020     0.061   0.819915E-13
     0.020     0.071   0.102351E-14
     0.020     0.081   0.109407E-16
     0.020     0.091   0.102229E-18
     0.020     0.101   0.848237E-21
     0.020     0.111   0.632804E-23
     0.020     0.121   0.428739E-25
     0.020     0.131   0.266006E-27
     0.020     0.141   0.152191E-29
     0.020     0.152   0.807730E-32
     0.020     0.162   0.399705E-34
     0.020     0.172   0.185244E-36
     0.020     0.182   0.807199E-39
     0.020     0.192   0.331858E-41
     0.020     0.202   0.129122E-43
     0.020     0.212   0.476795E-46
     0.020     0.222   0.167506E-48
     0.020     0.232   0.561156E-51
     0.020     0.242   0.179634E-53
     0.020     0.253   0.550509E-56
     0.020     0.263   0.161796E-58
     0.020     0.273   0.456765E-61
     0.020     0.283   0.124046E-63
     0.020     0.293   0.324512E-66
     0.020     0.303   0.818844E-69
     0.020     0.313   0.295171E-71
     0.020     0.323   0.431008E-70
     0.020     0.333   0.110027E-68
     0.020     0.343   0.430961E-70
     0.020     0.354   0.956527E-72
     0.020     0.364   0.163401E-73
     0.020     0.374   0.138435E-72
     0.020     0.384   0.135664E-70
     0.020     0.394   0.109572E-68
     0.020     0.404   0.692175E-67
     0.020     0.414   0.311861E-65
     0.020     0.424   0.796201E-64
     0.020     0.434   0.311861E-65
     0.020     0.444   0.692175E-67
     0.020     0.455   0.109572E-68
     0.020     0.465   0.137177E-70
     0.020     0.475   0.149848E-70
     0.020     0.485   0.119911E-68
     0.020     0.495   0.757487E-67
     0.020     0.505   0.341287E-65
     0.020     0.515   0.871328E-64
     0.020     0.525   0.341287E-65
     0.020     0.535   0.757487E-67
     0.020     0.545   0.119911E-68
     0.020     0.556   0.150108E-70
     0.020     0.566   0.162779E-70
     0.020     0.576   0.130250E-68
     0.020     0.586   0.822799E-67
     0.020     0.596   0.370713E-65
     0.020     0.606   0.946456E-64
     0.020     0.616   0.370713E-65
     0.020     0.626   0.822799E-67
     0.020     0.636   0.130250E-68
     0.020     0.646   0.162388E-70
     0.020     0.657   0.111731E-70
     0.020     0.667   0.889142E-69
     0.020     0.677   0.561679E-67
     0.020     0.687   0.253066E-65
     0.020     0.697   0.646093E-64
     0.020     0.707   0.253066E-65
     0.020     0.717   0.561679E-67
     0.020     0.727   0.889142E-69
     0.020     0.737   0.111340E-70
     0.020     0.747   0.124010E-70
     0.020     0.758   0.992530E-69
     0.020     0.768   0.626991E-67
     0.020     0.778   0.282492E-65
     0.020     0.788   0.721220E-64
     0.020     0.798   0.282492E-65
     0.020     0.808   0.626997E-67
     0.020     0.818   0.107107E-68
     0.020     0.828   0.907416E-68
     0.020     0.838   0.889253E-66
     0.020     0.848   0.718221E-64
     0.020     0.859   0.453708E-62
     0.020     0.869   0.204419E-60
     0.020     0.879   0.521894E-59
     0.020     0.889   0.204419E-60
     0.020     0.899   0.453708E-62
     0.020     0.909   0.718222E-64
     0.020     0.919   0.899170E-66
     0.020     0.929   0.982207E-66
     0.020     0.939   0.785979E-64
     0.020     0.949   0.496510E-62
     0.020     0.960   0.223704E-60
     0.020     0.970   0.571130E-59
     0.020     0.980   0.223704E-60
     0.020     0.990   0.496413E-62
     0.020     1.000   0.601347-153
     0.030     0.000   0.120737-152
     0.030     0.010   0.617195E-05
     0.030     0.020   0.464203E-06
     0.030     0.030   0.174476E-07
     0.030     0.040   0.436836E-09
     0.030     0.051   0.819536E-11
     0.030     0.061   0.122884E-12
     0.030     0.071   0.153398E-14
     0.030     0.081   0.163973E-16
     0.030     0.091   0.153215E-18
     0.030     0.101   0.127129E-20
     0.030     0.111   0.948409E-23
     0.030     0.121   0.642569E-25
     0.030     0.131   0.398674E-27
     0.030     0.141   0.228096E-29
     0.030     0.152   0.121058E-31
     0.030     0.162   0.599055E-34
     0.030     0.172   0.277633E-36
     0.030     0.182   0.120978E-38
     0.030     0.192   0.497369E-41
     0.030     0.202   0.193521E-43
     0.030     0.212   0.714593E-46
     0.030     0.222   0.251049E-48
     0.030     0.232   0.841028E-51
     0.030     0.242   0.269224E-53
     0.030     0.253   0.825070E-56
     0.030     0.263   0.242490E-58
     0.030     0.273   0.684572E-61
     0.030     0.283   0.185912E-63
     0.030     0.293   0.486359E-66
     0.030     0.303   0.122721E-68
     0.030     0.313   0.301300E-71
     0.030     0.323   0.963749E-72
     0.030     0.333   0.215670E-70
     0.030     0.343   0.956705E-72
     0.030     0.354   0.227128E-73
     0.030     0.364   0.406542E-75
     0.030     0.374   0.359859E-74
     0.030     0.384   0.345572E-72
     0.030     0.394   0.271304E-70
     0.030     0.404   0.164357E-68
     0.030     0.414   0.692311E-67
     0.030     0.424   0.156067E-65
     0.030     0.434   0.692311E-67
     0.030     0.444   0.164357E-68
     0.030     0.455   0.271305E-70
     0.030     0.465   0.349505E-72
     0.030     0.475   0.381773E-72
     0.030     0.485   0.296904E-70
     0.030     0.495   0.179866E-68
     0.030     0.505   0.757636E-67
     0.030     0.515   0.170793E-65
     0.030     0.525   0.757636E-67
     0.030     0.535   0.179866E-68
     0.030     0.545   0.296904E-70
     0.030     0.556   0.382451E-72
     0.030     0.566   0.414719E-72
     0.030     0.576   0.322504E-70
     0.030     0.586   0.195374E-68
     0.030     0.596   0.822960E-67
     0.030     0.606   0.185520E-65
     0.030     0.616   0.822960E-67
     0.030     0.626   0.195374E-68
     0.030     0.636   0.322504E-70
     0.030     0.646   0.413703E-72
     0.030     0.657   0.284693E-72
     0.030     0.667   0.220156E-70
     0.030     0.677   0.133371E-68
     0.030     0.687   0.561789E-67
     0.030     0.697   0.126644E-65
     0.030     0.707   0.561789E-67
     0.030     0.717   0.133371E-68
     0.030     0.727   0.220156E-70
     0.030     0.737   0.283676E-72
     0.030     0.747   0.315945E-72
     0.030     0.758   0.245755E-70
     0.030     0.768   0.148879E-68
     0.030     0.778   0.627114E-67
     0.030     0.788   0.141370E-65
     0.030     0.798   0.627114E-67
     0.030     0.808   0.148881E-68
     0.030     0.818   0.266482E-70
     0.030     0.828   0.235881E-69
     0.030     0.838   0.226516E-67
     0.030     0.848   0.177835E-65
     0.030     0.859   0.107733E-63
     0.030     0.869   0.453797E-62
     0.030     0.879   0.102299E-60
     0.030     0.889   0.453797E-62
     0.030     0.899   0.107733E-63
     0.030     0.909   0.177835E-65
     0.030     0.919   0.229094E-67
     0.030     0.929   0.250241E-67
     0.030     0.939   0.194612E-65
     0.030     0.949   0.117897E-63
     0.030     0.960   0.496608E-62
     0.030     0.970   0.111950E-60
     0.030     0.980   0.496608E-62
     0.030     0.990   0.117872E-63
     0.030     1.000   0.120737-152
     0.040     0.000   0.601347-153
     0.040     0.010   0.821959E-05
     0.040     0.020   0.618210E-06
     0.040     0.030   0.232361E-07
     0.040     0.040   0.581763E-09
     0.040     0.051   0.109143E-10
     0.040     0.061   0.163653E-12
     0.040     0.071   0.204291E-14
     0.040     0.081   0.218373E-16
     0.040     0.091   0.204046E-18
     0.040     0.101   0.169306E-20
     0.040     0.111   0.126306E-22
     0.040     0.121   0.855751E-25
     0.040     0.131   0.530941E-27
     0.040     0.141   0.303770E-29
     0.040     0.152   0.161221E-31
     0.040     0.162   0.797801E-34
     0.040     0.172   0.369743E-36
     0.040     0.182   0.161115E-38
     0.040     0.192   0.662380E-41
     0.040     0.202   0.257725E-43
     0.040     0.212   0.951671E-46
     0.040     0.222   0.334338E-48
     0.040     0.232   0.112005E-50
     0.040     0.242   0.358544E-53
     0.040     0.253   0.109880E-55
     0.040     0.263   0.322940E-58
     0.040     0.273   0.911690E-61
     0.040     0.283   0.247592E-63
     0.040     0.293   0.647717E-66
     0.040     0.303   0.163436E-68
     0.040     0.313   0.398273E-71
     0.040     0.323   0.245271E-73
     0.040     0.333   0.319261E-72
     0.040     0.343   0.151462E-73
     0.040     0.354   0.374953E-75
     0.040     0.364   0.693030E-77
     0.040     0.374   0.633218E-76
     0.040     0.384   0.598941E-74
     0.040     0.394   0.460763E-72
     0.040     0.404   0.271328E-70
     0.040     0.414   0.109604E-68
     0.040     0.424   0.231015E-67
     0.040     0.434   0.109604E-68
     0.040     0.444   0.271328E-70
     0.040     0.455   0.460763E-72
     0.040     0.465   0.605862E-74
     0.040     0.475   0.661779E-74
     0.040     0.485   0.504239E-72
     0.040     0.495   0.296930E-70
     0.040     0.505   0.119946E-68
     0.040     0.515   0.252812E-67
     0.040     0.525   0.119946E-68
     0.040     0.535   0.296930E-70
     0.040     0.545   0.504240E-72
     0.040     0.556   0.662973E-74
     0.040     0.566   0.718891E-74
     0.040     0.576   0.547716E-72
     0.040     0.586   0.322532E-70
     0.040     0.596   0.130288E-68
     0.040     0.606   0.274610E-67
     0.040     0.616   0.130288E-68
     0.040     0.626   0.322532E-70
     0.040     0.636   0.547716E-72
     0.040     0.646   0.717102E-74
     0.040     0.657   0.493540E-74
     0.040     0.667   0.373895E-72
     0.040     0.677   0.220175E-70
     0.040     0.687   0.889402E-69
     0.040     0.697   0.187461E-67
     0.040     0.707   0.889402E-69
     0.040     0.717   0.220175E-70
     0.040     0.727   0.373895E-72
     0.040     0.737   0.491751E-74
     0.040     0.747   0.547669E-74
     0.040     0.758   0.417372E-72
     0.040     0.768   0.245777E-70
     0.040     0.778   0.992822E-69
     0.040     0.788   0.209259E-67
     0.040     0.798   0.992822E-69
     0.040     0.808   0.245779E-70
     0.040     0.818   0.454272E-72
     0.040     0.828   0.415062E-71
     0.040     0.838   0.392594E-69
     0.040     0.848   0.302021E-67
     0.040     0.859   0.177851E-65
     0.040     0.869   0.718432E-64
     0.040     0.879   0.151426E-62
     0.040     0.889   0.718432E-64
     0.040     0.899   0.177851E-65
     0.040     0.909   0.302021E-67
     0.040     0.919   0.397131E-69
     0.040     0.929   0.433777E-69
     0.040     0.939   0.330514E-67
     0.040     0.949   0.194629E-65
     0.040     0.960   0.786209E-64
     0.040     0.970   0.165711E-62
     0.040     0.980   0.786209E-64
     0.040     0.990   0.194586E-65
     0.040     1.000   0.601347-153
     0.051     0.000   0.603687-153
     0.051     0.010   0.102590E-04
     0.051     0.020   0.771595E-06
     0.051     0.030   0.290012E-07
     0.051     0.040   0.726105E-09
     0.051     0.051   0.136223E-10
     0.051     0.061   0.204257E-12
     0.051     0.071   0.254977E-14
     0.051     0.081   0.272554E-16
     0.051     0.091   0.254672E-18
     0.051     0.101   0.211312E-20
     0.051     0.111   0.157644E-22
     0.051     0.121   0.106807E-24
     0.051     0.131   0.662673E-27
     0.051     0.141   0.379139E-29
     0.051     0.152   0.201221E-31
     0.051     0.162   0.995744E-34
     0.051     0.172   0.461480E-36
     0.051     0.182   0.201089E-38
     0.051     0.192   0.826723E-41
     0.051     0.202   0.321669E-43
     0.051     0.212   0.118779E-45
     0.051     0.222   0.417291E-48
     0.051     0.232   0.139795E-50
     0.051     0.242   0.447502E-53
     0.051     0.253   0.137142E-55
     0.051     0.263   0.403065E-58
     0.051     0.273   0.113789E-60
     0.051     0.283   0.309022E-63
     0.051     0.293   0.808423E-66
     0.051     0.303   0.203986E-68
     0.051     0.313   0.497043E-71
     0.051     0.323   0.118960E-73
     0.051     0.333   0.381769E-74
     0.051     0.343   0.187600E-75
     0.051     0.354   0.477630E-77
     0.051     0.364   0.903587E-79
     0.051     0.374   0.845505E-78
     0.051     0.384   0.790488E-76
     0.051     0.394   0.598969E-74
     0.051     0.404   0.345619E-72
     0.051     0.414   0.135712E-70
     0.051     0.424   0.274332E-69
     0.051     0.434   0.135712E-70
     0.051     0.444   0.345619E-72
     0.051     0.455   0.598970E-74
     0.051     0.465   0.799728E-76
     0.051     0.475   0.873520E-76
     0.051     0.485   0.655487E-74
     0.051     0.495   0.378231E-72
     0.051     0.505   0.148518E-70
     0.051     0.515   0.300218E-69
     0.051     0.525   0.148518E-70
     0.051     0.535   0.378231E-72
     0.051     0.545   0.655487E-74
     0.051     0.556   0.875113E-76
     0.051     0.566   0.948905E-76
     0.051     0.576   0.712004E-74
     0.051     0.586   0.410843E-72
     0.051     0.596   0.161323E-70
     0.051     0.606   0.326103E-69
     0.051     0.616   0.161323E-70
     0.051     0.626   0.410843E-72
     0.051     0.636   0.712004E-74
     0.051     0.646   0.946516E-76
     0.051     0.657   0.651494E-76
     0.051     0.667   0.486046E-74
     0.051     0.677   0.280460E-72
     0.051     0.687   0.110126E-70
     0.051     0.697   0.222612E-69
     0.051     0.707   0.110126E-70
     0.051     0.717   0.280460E-72
     0.051     0.727   0.486046E-74
     0.051     0.737   0.649105E-76
     0.051     0.747   0.722897E-76
     0.051     0.758   0.542563E-74
     0.051     0.768   0.313071E-72
     0.051     0.778   0.122932E-70
     0.051     0.788   0.248498E-69
     0.051     0.798   0.122932E-70
     0.051     0.808   0.313075E-72
     0.051     0.818   0.592288E-74
     0.051     0.828   0.554212E-73
     0.051     0.838   0.518149E-71
     0.051     0.848   0.392613E-69
     0.051     0.859   0.226547E-67
     0.051     0.869   0.889567E-66
     0.051     0.879   0.179820E-64
     0.051     0.889   0.889567E-66
     0.051     0.899   0.226547E-67
     0.051     0.909   0.392613E-69
     0.051     0.919   0.524206E-71
     0.051     0.929   0.572566E-71
     0.051     0.939   0.429652E-69
     0.051     0.949   0.247919E-67
     0.051     0.960   0.973489E-66
     0.051     0.970   0.196784E-64
     0.051     0.980   0.973489E-66
     0.051     0.990   0.247863E-67
     0.051     1.000    0.00000    
     0.061     0.000    0.00000    
     0.061     0.010   0.122880E-04
     0.061     0.020   0.924203E-06
     0.061     0.030   0.347371E-07
     0.061     0.040   0.869715E-09
     0.061     0.051   0.163165E-10
     0.061     0.061   0.244655E-12
     0.061     0.071   0.305407E-14
     0.061     0.081   0.326460E-16
     0.061     0.091   0.305042E-18
     0.061     0.101   0.253106E-20
     0.061     0.111   0.188823E-22
     0.061     0.121   0.127932E-24
     0.061     0.131   0.793738E-27
     0.061     0.141   0.454126E-29
     0.061     0.152   0.241019E-31
     0.061     0.162   0.119268E-33
     0.061     0.172   0.552752E-36
     0.061     0.182   0.240861E-38
     0.061     0.192   0.990235E-41
     0.061     0.202   0.385289E-43
     0.061     0.212   0.142271E-45
     0.061     0.222   0.499824E-48
     0.061     0.232   0.167444E-50
     0.061     0.242   0.536010E-53
     0.061     0.253   0.164267E-55
     0.061     0.263   0.482784E-58
     0.061     0.273   0.136294E-60
     0.061     0.283   0.370141E-63
     0.061     0.293   0.968314E-66
     0.061     0.303   0.244331E-68
     0.061     0.313   0.595349E-71
     0.061     0.323   0.140260E-73
     0.061     0.333   0.695256E-76
     0.061     0.343   0.198180E-77
     0.061     0.354   0.498231E-79
     0.061     0.364   0.956671E-81
     0.061     0.374   0.911502E-80
     0.061     0.384   0.844436E-78
     0.061     0.394   0.632438E-76
     0.061     0.404   0.359442E-74
     0.061     0.414   0.138302E-72
     0.061     0.424   0.271767E-71
     0.061     0.434   0.138302E-72
     0.061     0.444   0.359442E-74
     0.061     0.455   0.632438E-76
     0.061     0.465   0.854398E-78
     0.061     0.475   0.933218E-78
     0.061     0.485   0.692114E-76
     0.061     0.495   0.393358E-74
     0.061     0.505   0.151352E-72
     0.061     0.515   0.297410E-71
     0.061     0.525   0.151352E-72
     0.061     0.535   0.393358E-74
     0.061     0.545   0.692114E-76
     0.061     0.556   0.934936E-78
     0.061     0.566   0.101376E-77
     0.061     0.576   0.751789E-76
     0.061     0.586   0.427274E-74
     0.061     0.596   0.164402E-72
     0.061     0.606   0.323053E-71
     0.061     0.616   0.164402E-72
     0.061     0.626   0.427274E-74
     0.061     0.636   0.751789E-76
     0.061     0.646   0.101118E-77
     0.061     0.657   0.696055E-78
     0.061     0.667   0.513205E-76
     0.061     0.677   0.291676E-74
     0.061     0.687   0.112228E-72
     0.061     0.697   0.220530E-71
     0.061     0.707   0.112228E-72
     0.061     0.717   0.291676E-74
     0.061     0.727   0.513205E-76
     0.061     0.737   0.693480E-78
     0.061     0.747   0.772300E-78
     0.061     0.758   0.572880E-76
     0.061     0.768   0.325592E-74
     0.061     0.778   0.125278E-72
     0.061     0.788   0.246173E-71
     0.061     0.798   0.125278E-72
     0.061     0.808   0.325596E-74
     0.061     0.818   0.626880E-76
     0.061     0.828   0.597471E-75
     0.061     0.838   0.553512E-73
     0.061     0.848   0.414551E-71
     0.061     0.859   0.235607E-69
     0.061     0.869   0.906543E-68
     0.061     0.879   0.178138E-66
     0.061     0.889   0.906543E-68
     0.061     0.899   0.235607E-69
     0.061     0.909   0.414551E-71
     0.061     0.919   0.560042E-73
     0.061     0.929   0.611697E-73
     0.061     0.939   0.453660E-71
     0.061     0.949   0.257834E-69
     0.061     0.960   0.992066E-68
     0.061     0.970   0.194943E-66
     0.061     0.980   0.992066E-68
     0.061     0.990   0.257774E-69
     0.061     1.000    0.00000    
     0.071     0.000    0.00000    
     0.071     0.010   0.143047E-04
     0.071     0.020   0.107588E-05
     0.071     0.030   0.404381E-07
     0.071     0.040   0.101245E-08
     0.071     0.051   0.189943E-10
     0.071     0.061   0.284807E-12
     0.071     0.071   0.355530E-14
     0.071     0.081   0.380038E-16
     0.071     0.091   0.355104E-18
     0.071     0.101   0.294645E-20
     0.071     0.111   0.219812E-22
     0.071     0.121   0.148928E-24
     0.071     0.131   0.924003E-27
     0.071     0.141   0.528655E-29
     0.071     0.152   0.280575E-31
     0.071     0.162   0.138842E-33
     0.071     0.172   0.643468E-36
     0.071     0.182   0.280390E-38
     0.071     0.192   0.115275E-40
     0.071     0.202   0.448522E-43
     0.071     0.212   0.165621E-45
     0.071     0.222   0.581853E-48
     0.071     0.232   0.194924E-50
     0.071     0.242   0.623979E-53
     0.071     0.253   0.191226E-55
     0.071     0.263   0.562017E-58
     0.071     0.273   0.158663E-60
     0.071     0.283   0.430887E-63
     0.071     0.293   0.112723E-65
     0.071     0.303   0.284430E-68
     0.071     0.313   0.693055E-71
     0.071     0.323   0.163257E-73
     0.071     0.333   0.375359E-76
     0.071     0.343   0.987500E-79
     0.071     0.354   0.613042E-81
     0.071     0.364   0.889594E-83
     0.071     0.374   0.824909E-82
     0.071     0.384   0.758647E-80
     0.071     0.394   0.563010E-78
     0.071     0.404   0.316278E-76
     0.071     0.414   0.119864E-74
     0.071     0.424   0.230808E-73
     0.071     0.434   0.119864E-74
     0.071     0.444   0.316278E-76
     0.071     0.455   0.563011E-78
     0.071     0.465   0.767662E-80
     0.071     0.475   0.838469E-80
     0.071     0.485   0.616135E-78
     0.071     0.495   0.346122E-76
     0.071     0.505   0.131174E-74
     0.071     0.515   0.252587E-73
     0.071     0.525   0.131174E-74
     0.071     0.535   0.346122E-76
     0.071     0.545   0.616135E-78
     0.071     0.556   0.840024E-80
     0.071     0.566   0.910830E-80
     0.071     0.576   0.669259E-78
     0.071     0.586   0.375965E-76
     0.071     0.596   0.142484E-74
     0.071     0.606   0.274365E-73
     0.071     0.616   0.142484E-74
     0.071     0.626   0.375965E-76
     0.071     0.636   0.669259E-78
     0.071     0.646   0.908500E-80
     0.071     0.657   0.625412E-80
     0.071     0.667   0.456867E-78
     0.071     0.677   0.256650E-76
     0.071     0.687   0.972661E-75
     0.071     0.697   0.187294E-73
     0.071     0.707   0.972661E-75
     0.071     0.717   0.256650E-76
     0.071     0.727   0.456866E-78
     0.071     0.737   0.623081E-80
     0.071     0.747   0.693888E-80
     0.071     0.758   0.509990E-78
     0.071     0.768   0.286493E-76
     0.071     0.778   0.108576E-74
     0.071     0.788   0.209072E-73
     0.071     0.798   0.108576E-74
     0.071     0.808   0.286497E-76
     0.071     0.818   0.559151E-78
     0.071     0.828   0.540707E-77
     0.071     0.838   0.497278E-75
     0.071     0.848   0.369042E-73
     0.071     0.859   0.207314E-71
     0.071     0.869   0.785687E-70
     0.071     0.879   0.151290E-68
     0.071     0.889   0.785687E-70
     0.071     0.899   0.207314E-71
     0.071     0.909   0.369043E-73
     0.071     0.919   0.503188E-75
     0.071     0.929   0.549592E-75
     0.071     0.939   0.403858E-73
     0.071     0.949   0.226872E-71
     0.071     0.960   0.859808E-70
     0.071     0.970   0.165563E-68
     0.071     0.980   0.859808E-70
     0.071     0.990   0.226818E-71
     0.071     1.000    0.00000    
     0.081     0.000    0.00000    
     0.081     0.010   0.163069E-04
     0.081     0.020   0.122647E-05
     0.081     0.030   0.460983E-07
     0.081     0.040   0.115417E-08
     0.081     0.051   0.216530E-10
     0.081     0.061   0.324672E-12
     0.081     0.071   0.405294E-14
     0.081     0.081   0.433233E-16
     0.081     0.091   0.404809E-18
     0.081     0.101   0.335888E-20
     0.081     0.111   0.250580E-22
     0.081     0.121   0.169773E-24
     0.081     0.131   0.105334E-26
     0.081     0.141   0.602652E-29
     0.081     0.152   0.319847E-31
     0.081     0.162   0.158276E-33
     0.081     0.172   0.733536E-36
     0.081     0.182   0.319637E-38
     0.081     0.192   0.131410E-40
     0.081     0.202   0.511303E-43
     0.081     0.212   0.188803E-45
     0.081     0.222   0.663296E-48
     0.081     0.232   0.222208E-50
     0.081     0.242   0.711319E-53
     0.081     0.253   0.217992E-55
     0.081     0.263   0.640684E-58
     0.081     0.273   0.180871E-60
     0.081     0.283   0.491200E-63
     0.081     0.293   0.128501E-65
     0.081     0.303   0.324242E-68