Title="Temperature Data"
Variables="X","Y","T"
 
Zone I=   128, J=   128, F=POINT
     0.000     0.000    0.00000    
     0.000     0.008    0.00000    
     0.000     0.016    0.00000    
     0.000     0.024    0.00000    
     0.000     0.031    0.00000    
     0.000     0.039    0.00000    
     0.000     0.047    0.00000    
     0.000     0.055    0.00000    
     0.000     0.063    0.00000    
     0.000     0.071    0.00000    
     0.000     0.079    0.00000    
     0.000     0.087    0.00000    
     0.000     0.094    0.00000    
     0.000     0.102    0.00000    
     0.000     0.110    0.00000    
     0.000     0.118    0.00000    
     0.000     0.126    0.00000    
     0.000     0.134    0.00000    
     0.000     0.142    0.00000    
     0.000     0.150    0.00000    
     0.000     0.157    0.00000    
     0.000     0.165    0.00000    
     0.000     0.173    0.00000    
     0.000     0.181    0.00000    
     0.000     0.189    0.00000    
     0.000     0.197    0.00000    
     0.000     0.205    0.00000    
     0.000     0.213    0.00000    
     0.000     0.220    0.00000    
     0.000     0.228    0.00000    
     0.000     0.236    0.00000    
     0.000     0.244    0.00000    
     0.000     0.252    0.00000    
     0.000     0.260    0.00000    
     0.000     0.268    0.00000    
     0.000     0.276    0.00000    
     0.000     0.283    0.00000    
     0.000     0.291    0.00000    
     0.000     0.299    0.00000    
     0.000     0.307    0.00000    
     0.000     0.315    0.00000    
     0.000     0.323    0.00000    
     0.000     0.331    0.00000    
     0.000     0.339    0.00000    
     0.000     0.346    0.00000    
     0.000     0.354    0.00000    
     0.000     0.362    0.00000    
     0.000     0.370    0.00000    
     0.000     0.378    0.00000    
     0.000     0.386    0.00000    
     0.000     0.394    0.00000    
     0.000     0.402    0.00000    
     0.000     0.409    0.00000    
     0.000     0.417    0.00000    
     0.000     0.425    0.00000    
     0.000     0.433    0.00000    
     0.000     0.441    0.00000    
     0.000     0.449    0.00000    
     0.000     0.457    0.00000    
     0.000     0.465    0.00000    
     0.000     0.472    0.00000    
     0.000     0.480    0.00000    
     0.000     0.488    0.00000    
     0.000     0.496    0.00000    
     0.000     0.504    0.00000    
     0.000     0.512    0.00000    
     0.000     0.520    0.00000    
     0.000     0.528    0.00000    
     0.000     0.535    0.00000    
     0.000     0.543    0.00000    
     0.000     0.551    0.00000    
     0.000     0.559    0.00000    
     0.000     0.567    0.00000    
     0.000     0.575    0.00000    
     0.000     0.583    0.00000    
     0.000     0.591    0.00000    
     0.000     0.598    0.00000    
     0.000     0.606    0.00000    
     0.000     0.614    0.00000    
     0.000     0.622    0.00000    
     0.000     0.630    0.00000    
     0.000     0.638    0.00000    
     0.000     0.646    0.00000    
     0.000     0.654    0.00000    
     0.000     0.661    0.00000    
     0.000     0.669    0.00000    
     0.000     0.677    0.00000    
     0.000     0.685    0.00000    
     0.000     0.693    0.00000    
     0.000     0.701    0.00000    
     0.000     0.709    0.00000    
     0.000     0.717    0.00000    
     0.000     0.724    0.00000    
     0.000     0.732    0.00000    
     0.000     0.740    0.00000    
     0.000     0.748    0.00000    
     0.000     0.756    0.00000    
     0.000     0.764    0.00000    
     0.000     0.772    0.00000    
     0.000     0.780    0.00000    
     0.000     0.787    0.00000    
     0.000     0.795    0.00000    
     0.000     0.803    0.00000    
     0.000     0.811    0.00000    
     0.000     0.819    0.00000    
     0.000     0.827    0.00000    
     0.000     0.835    0.00000    
     0.000     0.843    0.00000    
     0.000     0.850    0.00000    
     0.000     0.858    0.00000    
     0.000     0.866    0.00000    
     0.000     0.874    0.00000    
     0.000     0.882    0.00000    
     0.000     0.890    0.00000    
     0.000     0.898    0.00000    
     0.000     0.906    0.00000    
     0.000     0.913    0.00000    
     0.000     0.921    0.00000    
     0.000     0.929    0.00000    
     0.000     0.937    0.00000    
     0.000     0.945    0.00000    
     0.000     0.953    0.00000    
     0.000     0.961    0.00000    
     0.000     0.969    0.00000    
     0.000     0.976    0.00000    
     0.000     0.984    0.00000    
     0.000     0.992    0.00000    
     0.000     1.000    0.00000    
     0.008     0.000   0.247344E-01
     0.008     0.008   0.241215E-01
     0.008     0.016   0.235233E-01
     0.008     0.024   0.229395E-01
     0.008     0.031   0.223698E-01
     0.008     0.039   0.218138E-01
     0.008     0.047   0.212711E-01
     0.008     0.055   0.207416E-01
     0.008     0.063   0.202248E-01
     0.008     0.071   0.197204E-01
     0.008     0.079   0.192282E-01
     0.008     0.087   0.187478E-01
     0.008     0.094   0.182789E-01
     0.008     0.102   0.178214E-01
     0.008     0.110   0.173748E-01
     0.008     0.118   0.169390E-01
     0.008     0.126   0.165137E-01
     0.008     0.134   0.160986E-01
     0.008     0.142   0.156935E-01
     0.008     0.150   0.152981E-01
     0.008     0.157   0.149122E-01
     0.008     0.165   0.145356E-01
     0.008     0.173   0.141680E-01
     0.008     0.181   0.138093E-01
     0.008     0.189   0.134592E-01
     0.008     0.197   0.131175E-01
     0.008     0.205   0.127841E-01
     0.008     0.213   0.124586E-01
     0.008     0.220   0.121409E-01
     0.008     0.228   0.118309E-01
     0.008     0.236   0.115284E-01
     0.008     0.244   0.112331E-01
     0.008     0.252   0.109449E-01
     0.008     0.260   0.106636E-01
     0.008     0.268   0.103891E-01
     0.008     0.276   0.101211E-01
     0.008     0.283   0.985964E-02
     0.008     0.291   0.960440E-02
     0.008     0.299   0.935532E-02
     0.008     0.307   0.911219E-02
     0.008     0.315   0.887493E-02
     0.008     0.323   0.864333E-02
     0.008     0.331   0.841732E-02
     0.008     0.339   0.819669E-02
     0.008     0.346   0.798140E-02
     0.008     0.354   0.777122E-02
     0.008     0.362   0.756613E-02
     0.008     0.370   0.736590E-02
     0.008     0.378   0.717052E-02
     0.008     0.386   0.697977E-02
     0.008     0.394   0.679364E-02
     0.008     0.402   0.661190E-02
     0.008     0.409   0.643456E-02
     0.008     0.417   0.626141E-02
     0.008     0.425   0.609245E-02
     0.008     0.433   0.592746E-02
     0.008     0.441   0.576646E-02
     0.008     0.449   0.560925E-02
     0.008     0.457   0.545582E-02
     0.008     0.465   0.530600E-02
     0.008     0.472   0.515978E-02
     0.008     0.480   0.501698E-02
     0.008     0.488   0.487761E-02
     0.008     0.496   0.474148E-02
     0.008     0.504   0.460862E-02
     0.008     0.512   0.447884E-02
     0.008     0.520   0.435216E-02
     0.008     0.528   0.422841E-02
     0.008     0.535   0.410760E-02
     0.008     0.543   0.398956E-02
     0.008     0.551   0.387433E-02
     0.008     0.559   0.376172E-02
     0.008     0.567   0.365176E-02
     0.008     0.575   0.354430E-02
     0.008     0.583   0.343935E-02
     0.008     0.591   0.333676E-02
     0.008     0.598   0.323655E-02
     0.008     0.606   0.313857E-02
     0.008     0.614   0.304286E-02
     0.008     0.622   0.294924E-02
     0.008     0.630   0.285777E-02
     0.008     0.638   0.276827E-02
     0.008     0.646   0.268080E-02
     0.008     0.654   0.259520E-02
     0.008     0.661   0.251151E-02
     0.008     0.669   0.242958E-02
     0.008     0.677   0.234944E-02
     0.008     0.685   0.227096E-02
     0.008     0.693   0.219417E-02
     0.008     0.701   0.211893E-02
     0.008     0.709   0.204528E-02
     0.008     0.717   0.197308E-02
     0.008     0.724   0.190237E-02
     0.008     0.732   0.183301E-02
     0.008     0.740   0.176505E-02
     0.008     0.748   0.169835E-02
     0.008     0.756   0.163294E-02
     0.008     0.764   0.156871E-02
     0.008     0.772   0.150568E-02
     0.008     0.780   0.144374E-02
     0.008     0.787   0.138291E-02
     0.008     0.795   0.132309E-02
     0.008     0.803   0.126429E-02
     0.008     0.811   0.120641E-02
     0.008     0.819   0.114946E-02
     0.008     0.827   0.109336E-02
     0.008     0.835   0.103811E-02
     0.008     0.843   0.983626E-03
     0.008     0.850   0.929910E-03
     0.008     0.858   0.876878E-03
     0.008     0.866   0.824535E-03
     0.008     0.874   0.772801E-03
     0.008     0.882   0.721677E-03
     0.008     0.890   0.671086E-03
     0.008     0.898   0.621027E-03
     0.008     0.906   0.571428E-03
     0.008     0.913   0.522282E-03
     0.008     0.921   0.473524E-03
     0.008     0.929   0.425143E-03
     0.008     0.937   0.377078E-03
     0.008     0.945   0.329314E-03
     0.008     0.953   0.281795E-03
     0.008     0.961   0.234500E-03
     0.008     0.969   0.187381E-03
     0.008     0.976   0.140411E-03
     0.008     0.984   0.935458E-04
     0.008     0.992   0.467554E-04
     0.008     1.000    0.00000    
     0.016     0.000   0.494537E-01
     0.016     0.008   0.482282E-01
     0.016     0.016   0.470321E-01
     0.016     0.024   0.458649E-01
     0.016     0.031   0.447258E-01
     0.016     0.039   0.436142E-01
     0.016     0.047   0.425293E-01
     0.016     0.055   0.414705E-01
     0.016     0.063   0.404372E-01
     0.016     0.071   0.394287E-01
     0.016     0.079   0.384446E-01
     0.016     0.087   0.374841E-01
     0.016     0.094   0.365467E-01
     0.016     0.102   0.356319E-01
     0.016     0.110   0.347390E-01
     0.016     0.118   0.338677E-01
     0.016     0.126   0.330172E-01
     0.016     0.134   0.321873E-01
     0.016     0.142   0.313773E-01
     0.016     0.150   0.305868E-01
     0.016     0.157   0.298152E-01
     0.016     0.165   0.290623E-01
     0.016     0.173   0.283274E-01
     0.016     0.181   0.276102E-01
     0.016     0.189   0.269102E-01
     0.016     0.197   0.262270E-01
     0.016     0.205   0.255603E-01
     0.016     0.213   0.249096E-01
     0.016     0.220   0.242744E-01
     0.016     0.228   0.236546E-01
     0.016     0.236   0.230497E-01
     0.016     0.244   0.224593E-01
     0.016     0.252   0.218830E-01
     0.016     0.260   0.213207E-01
     0.016     0.268   0.207717E-01
     0.016     0.276   0.202361E-01
     0.016     0.283   0.197132E-01
     0.016     0.291   0.192030E-01
     0.016     0.299   0.187049E-01
     0.016     0.307   0.182188E-01
     0.016     0.315   0.177444E-01
     0.016     0.323   0.172814E-01
     0.016     0.331   0.168294E-01
     0.016     0.339   0.163884E-01
     0.016     0.346   0.159579E-01
     0.016     0.354   0.155377E-01
     0.016     0.362   0.151276E-01
     0.016     0.370   0.147273E-01
     0.016     0.378   0.143366E-01
     0.016     0.386   0.139553E-01
     0.016     0.394   0.135831E-01
     0.016     0.402   0.132198E-01
     0.016     0.409   0.128651E-01
     0.016     0.417   0.125190E-01
     0.016     0.425   0.121811E-01
     0.016     0.433   0.118514E-01
     0.016     0.441   0.115293E-01
     0.016     0.449   0.112151E-01
     0.016     0.457   0.109083E-01
     0.016     0.465   0.106088E-01
     0.016     0.472   0.103163E-01
     0.016     0.480   0.100309E-01
     0.016     0.488   0.975218E-02
     0.016     0.496   0.948012E-02
     0.016     0.504   0.921437E-02
     0.016     0.512   0.895499E-02
     0.016     0.520   0.870161E-02
     0.016     0.528   0.845428E-02
     0.016     0.535   0.821264E-02
     0.016     0.543   0.797674E-02
     0.016     0.551   0.774623E-02
     0.016     0.559   0.752118E-02
     0.016     0.567   0.730124E-02
     0.016     0.575   0.708647E-02
     0.016     0.583   0.687654E-02
     0.016     0.591   0.667152E-02
     0.016     0.598   0.647107E-02
     0.016     0.606   0.627527E-02
     0.016     0.614   0.608380E-02
     0.016     0.622   0.589673E-02
     0.016     0.630   0.571374E-02
     0.016     0.638   0.553490E-02
     0.016     0.646   0.535992E-02
     0.016     0.654   0.518887E-02
     0.016     0.661   0.502144E-02
     0.016     0.669   0.485771E-02
     0.016     0.677   0.469740E-02
     0.016     0.685   0.454057E-02
     0.016     0.693   0.438695E-02
     0.016     0.701   0.423660E-02
     0.016     0.709   0.408926E-02
     0.016     0.717   0.394499E-02
     0.016     0.724   0.380353E-02
     0.016     0.732   0.366494E-02
     0.016     0.740   0.352897E-02
     0.016     0.748   0.339569E-02
     0.016     0.756   0.326485E-02
     0.016     0.764   0.313649E-02
     0.016     0.772   0.301041E-02
     0.016     0.780   0.288663E-02
     0.016     0.787   0.276495E-02
     0.016     0.795   0.264540E-02
     0.016     0.803   0.252777E-02
     0.016     0.811   0.241210E-02
     0.016     0.819   0.229820E-02
     0.016     0.827   0.218608E-02
     0.016     0.835   0.207557E-02
     0.016     0.843   0.196667E-02
     0.016     0.850   0.185923E-02
     0.016     0.858   0.175324E-02
     0.016     0.866   0.164855E-02
     0.016     0.874   0.154515E-02
     0.016     0.882   0.144289E-02
     0.016     0.890   0.134178E-02
     0.016     0.898   0.124166E-02
     0.016     0.906   0.114252E-02
     0.016     0.913   0.104423E-02
     0.016     0.921   0.946771E-03
     0.016     0.929   0.850015E-03
     0.016     0.937   0.753936E-03
     0.016     0.945   0.658417E-03
     0.016     0.953   0.563424E-03
     0.016     0.961   0.468851E-03
     0.016     0.969   0.374652E-03
     0.016     0.976   0.280732E-03
     0.016     0.984   0.187037E-03
     0.016     0.992   0.934810E-04
     0.016     1.000    0.00000    
     0.024     0.000   0.741428E-01
     0.024     0.008   0.723054E-01
     0.024     0.016   0.705122E-01
     0.024     0.024   0.687623E-01
     0.024     0.031   0.670545E-01
     0.024     0.039   0.653879E-01
     0.024     0.047   0.637614E-01
     0.024     0.055   0.621740E-01
     0.024     0.063   0.606248E-01
     0.024     0.071   0.591129E-01
     0.024     0.079   0.576374E-01
     0.024     0.087   0.561974E-01
     0.024     0.094   0.547921E-01
     0.024     0.102   0.534205E-01
     0.024     0.110   0.520820E-01
     0.024     0.118   0.507756E-01
     0.024     0.126   0.495006E-01
     0.024     0.134   0.482563E-01
     0.024     0.142   0.470420E-01
     0.024     0.150   0.458567E-01
     0.024     0.157   0.447001E-01
     0.024     0.165   0.435711E-01
     0.024     0.173   0.424694E-01
     0.024     0.181   0.413941E-01
     0.024     0.189   0.403447E-01
     0.024     0.197   0.393204E-01
     0.024     0.205   0.383209E-01
     0.024     0.213   0.373452E-01
     0.024     0.220   0.363931E-01
     0.024     0.228   0.354638E-01
     0.024     0.236   0.345569E-01
     0.024     0.244   0.336717E-01
     0.024     0.252   0.328078E-01
     0.024     0.260   0.319646E-01
     0.024     0.268   0.311418E-01
     0.024     0.276   0.303386E-01
     0.024     0.283   0.295548E-01
     0.024     0.291   0.287897E-01
     0.024     0.299   0.280431E-01
     0.024     0.307   0.273143E-01
     0.024     0.315   0.266031E-01
     0.024     0.323   0.259088E-01
     0.024     0.331   0.252314E-01
     0.024     0.339   0.245700E-01
     0.024     0.346   0.239247E-01
     0.024     0.354   0.232946E-01
     0.024     0.362   0.226799E-01
     0.024     0.370   0.220797E-01
     0.024     0.378   0.214940E-01
     0.024     0.386   0.209222E-01
     0.024     0.394   0.203643E-01
     0.024     0.402   0.198195E-01
     0.024     0.409   0.192879E-01
     0.024     0.417   0.187689E-01
     0.024     0.425   0.182624E-01
     0.024     0.433   0.177679E-01
     0.024     0.441   0.172853E-01
     0.024     0.449   0.168140E-01
     0.024     0.457   0.163541E-01
     0.024     0.465   0.159050E-01
     0.024     0.472   0.154667E-01
     0.024     0.480   0.150387E-01
     0.024     0.488   0.146209E-01
     0.024     0.496   0.142128E-01
     0.024     0.504   0.138146E-01
     0.024     0.512   0.134256E-01
     0.024     0.520   0.130458E-01
     0.024     0.528   0.126749E-01
     0.024     0.535   0.123127E-01
     0.024     0.543   0.119589E-01
     0.024     0.551   0.116135E-01
     0.024     0.559   0.112759E-01
     0.024     0.567   0.109463E-01
     0.024     0.575   0.106242E-01
     0.024     0.583   0.103096E-01
     0.024     0.591   0.100021E-01
     0.024     0.598   0.970174E-02
     0.024     0.606   0.940804E-02
     0.024     0.614   0.912112E-02
     0.024     0.622   0.884051E-02
     0.024     0.630   0.856630E-02
     0.024     0.638   0.829805E-02
     0.024     0.646   0.803585E-02
     0.024     0.654   0.777926E-02
     0.024     0.661   0.752838E-02
     0.024     0.669   0.728279E-02
     0.024     0.677   0.704257E-02
     0.024     0.685   0.680732E-02
     0.024     0.693   0.657714E-02
     0.024     0.701   0.635160E-02
     0.024     0.709   0.613083E-02
     0.024     0.717   0.591441E-02
     0.024     0.724   0.570244E-02
     0.024     0.732   0.549455E-02
     0.024     0.740   0.529082E-02
     0.024     0.748   0.509088E-02
     0.024     0.756   0.489482E-02
     0.024     0.764   0.470229E-02
     0.024     0.772   0.451336E-02
     0.024     0.780   0.432769E-02
     0.024     0.787   0.414535E-02
     0.024     0.795   0.396603E-02
     0.024     0.803   0.378977E-02
     0.024     0.811   0.361627E-02
     0.024     0.819   0.344558E-02
     0.024     0.827   0.327741E-02
     0.024     0.835   0.311180E-02
     0.024     0.843   0.294847E-02
     0.024     0.850   0.278745E-02
     0.024     0.858   0.262849E-02
     0.024     0.866   0.247159E-02
     0.024     0.874   0.231651E-02
     0.024     0.882   0.216326E-02
     0.024     0.890   0.201162E-02
     0.024     0.898   0.186156E-02
     0.024     0.906   0.171288E-02
     0.024     0.913   0.156557E-02
     0.024     0.921   0.141941E-02
     0.024     0.929   0.127439E-02
     0.024     0.937   0.113031E-02
     0.024     0.945   0.987135E-03
     0.024     0.953   0.844694E-03
     0.024     0.961   0.702927E-03
     0.024     0.969   0.561684E-03
     0.024     0.976   0.420889E-03
     0.024     0.984   0.280408E-03
     0.024     0.992   0.140152E-03
     0.024     1.000    0.00000    
     0.031     0.000   0.987864E-01
     0.031     0.008   0.963383E-01
     0.031     0.016   0.939492E-01
     0.031     0.024   0.916176E-01
     0.031     0.031   0.893422E-01
     0.031     0.039   0.871216E-01
     0.031     0.047   0.849544E-01
     0.031     0.055   0.828395E-01
     0.031     0.063   0.807754E-01
     0.031     0.071   0.787610E-01
     0.031     0.079   0.767950E-01
     0.031     0.087   0.748764E-01
     0.031     0.094   0.730039E-01
     0.031     0.102   0.711765E-01
     0.031     0.110   0.693930E-01
     0.031     0.118   0.676525E-01
     0.031     0.126   0.659537E-01
     0.031     0.134   0.642959E-01
     0.031     0.142   0.626778E-01
     0.031     0.150   0.610987E-01
     0.031     0.157   0.595575E-01
     0.031     0.165   0.580534E-01
     0.031     0.173   0.565854E-01
     0.031     0.181   0.551528E-01
     0.031     0.189   0.537545E-01
     0.031     0.197   0.523899E-01
     0.031     0.205   0.510580E-01
     0.031     0.213   0.497582E-01
     0.031     0.220   0.484895E-01
     0.031     0.228   0.472514E-01
     0.031     0.236   0.460429E-01
     0.031     0.244   0.448636E-01
     0.031     0.252   0.437125E-01
     0.031     0.260   0.425892E-01
     0.031     0.268   0.414927E-01
     0.031     0.276   0.404226E-01
     0.031     0.283   0.393782E-01
     0.031     0.291   0.383589E-01
     0.031     0.299   0.373640E-01
     0.031     0.307   0.363931E-01
     0.031     0.315   0.354454E-01
     0.031     0.323   0.345205E-01
     0.031     0.331   0.336177E-01
     0.031     0.339   0.327367E-01
     0.031     0.346   0.318767E-01
     0.031     0.354   0.310374E-01
     0.031     0.362   0.302181E-01
     0.031     0.370   0.294187E-01
     0.031     0.378   0.286381E-01
     0.031     0.386   0.278765E-01
     0.031     0.394   0.271329E-01
     0.031     0.402   0.264073E-01
     0.031     0.409   0.256988E-01
     0.031     0.417   0.250075E-01
     0.031     0.425   0.243324E-01
     0.031     0.433   0.236737E-01
     0.031     0.441   0.230305E-01
     0.031     0.449   0.224028E-01
     0.031     0.457   0.217898E-01
     0.031     0.465   0.211916E-01
     0.031     0.472   0.206075E-01
     0.031     0.480   0.200373E-01
     0.031     0.488   0.194805E-01
     0.031     0.496   0.189370E-01
     0.031     0.504   0.184062E-01
     0.031     0.512   0.178881E-01
     0.031     0.520   0.173819E-01
     0.031     0.528   0.168879E-01
     0.031     0.535   0.164052E-01
     0.031     0.543   0.159340E-01
     0.031     0.551   0.154735E-01
     0.031     0.559   0.150240E-01
     0.031     0.567   0.145846E-01
     0.031     0.575   0.141556E-01
     0.031     0.583   0.137363E-01
     0.031     0.591   0.133267E-01
     0.031     0.598   0.129263E-01
     0.031     0.606   0.125352E-01
     0.031     0.614   0.121527E-01
     0.031     0.622   0.117790E-01
     0.031     0.630   0.114135E-01
     0.031     0.638   0.110563E-01
     0.031     0.646   0.107067E-01
     0.031     0.654   0.103650E-01
     0.031     0.661   0.100306E-01
     0.031     0.669   0.970354E-02
     0.031     0.677   0.938331E-02
     0.031     0.685   0.907004E-02
     0.031     0.693   0.876317E-02
     0.031     0.701   0.846284E-02
     0.031     0.709   0.816852E-02
     0.031     0.717   0.788033E-02
     0.031     0.724   0.759775E-02
     0.031     0.732   0.732091E-02
     0.031     0.740   0.704931E-02
     0.031     0.748   0.678307E-02
     0.031     0.756   0.652170E-02
     0.031     0.764   0.626531E-02
     0.031     0.772   0.601345E-02
     0.031     0.780   0.576620E-02
     0.031     0.787   0.552313E-02
     0.031     0.795   0.528432E-02
     0.031     0.803   0.504935E-02
     0.031     0.811   0.481830E-02
     0.031     0.819   0.459077E-02
     0.031     0.827   0.436681E-02
     0.031     0.835   0.414605E-02
     0.031     0.843   0.392854E-02
     0.031     0.850   0.371391E-02
     0.031     0.858   0.350219E-02
     0.031     0.866   0.329306E-02
     0.031     0.874   0.308652E-02
     0.031     0.882   0.288226E-02
     0.031     0.890   0.268027E-02
     0.031     0.898   0.248028E-02
     0.031     0.906   0.228224E-02
     0.031     0.913   0.208591E-02
     0.031     0.921   0.189123E-02
     0.031     0.929   0.169795E-02
     0.031     0.937   0.150603E-02
     0.031     0.945   0.131522E-02
     0.031     0.953   0.112547E-02
     0.031     0.961   0.936554E-03
     0.031     0.969   0.748387E-03
     0.031     0.976   0.560777E-03
     0.031     0.984   0.373616E-03
     0.031     0.992   0.186733E-03
     0.031     1.000    0.00000    
     0.039     0.000   0.123370    
     0.039     0.008   0.120312    
     0.039     0.016   0.117329    
     0.039     0.024   0.114417    
     0.039     0.031   0.111575    
     0.039     0.039   0.108802    
     0.039     0.047   0.106096    
     0.039     0.055   0.103454    
     0.039     0.063   0.100877    
     0.039     0.071   0.983608E-01
     0.039     0.079   0.959057E-01
     0.039     0.087   0.935095E-01
     0.039     0.094   0.911711E-01
     0.039     0.102   0.888889E-01
     0.039     0.110   0.866617E-01
     0.039     0.118   0.844879E-01
     0.039     0.126   0.823665E-01
     0.039     0.134   0.802960E-01
     0.039     0.142   0.782754E-01
     0.039     0.150   0.763032E-01
     0.039     0.157   0.743786E-01
     0.039     0.165   0.725001E-01
     0.039     0.173   0.706669E-01
     0.039     0.181   0.688776E-01
     0.039     0.189   0.671315E-01
     0.039     0.197   0.654271E-01
     0.039     0.205   0.637639E-01
     0.039     0.213   0.621405E-01
     0.039     0.220   0.605563E-01
     0.039     0.228   0.590099E-01
     0.039     0.236   0.575009E-01
     0.039     0.244   0.560279E-01
     0.039     0.252   0.545905E-01
     0.039     0.260   0.531875E-01
     0.039     0.268   0.518183E-01
     0.039     0.276   0.504818E-01
     0.039     0.283   0.491776E-01
     0.039     0.291   0.479045E-01
     0.039     0.299   0.466622E-01
     0.039     0.307   0.454495E-01
     0.039     0.315   0.442661E-01
     0.039     0.323   0.431109E-01
     0.039     0.331   0.419837E-01
     0.039     0.339   0.408832E-01
     0.039     0.346   0.398094E-01
     0.039     0.354   0.387611E-01
     0.039     0.362   0.377381E-01
     0.039     0.370   0.367394E-01
     0.039     0.378   0.357649E-01
     0.039     0.386   0.348135E-01
     0.039     0.394   0.338851E-01
     0.039     0.402   0.329787E-01
     0.039     0.409   0.320941E-01
     0.039     0.417   0.312305E-01
     0.039     0.425   0.303877E-01
     0.039     0.433   0.295648E-01
     0.039     0.441   0.287618E-01
     0.039     0.449   0.279776E-01
     0.039     0.457   0.272124E-01
     0.039     0.465   0.264651E-01
     0.039     0.472   0.257358E-01
     0.039     0.480   0.250235E-01
     0.039     0.488   0.243284E-01
     0.039     0.496   0.236494E-01
     0.039     0.504   0.229867E-01
     0.039     0.512   0.223394E-01
     0.039     0.520   0.217076E-01
     0.039     0.528   0.210903E-01
     0.039     0.535   0.204878E-01
     0.039     0.543   0.198990E-01
     0.039     0.551   0.193242E-01
     0.039     0.559   0.187626E-01
     0.039     0.567   0.182141E-01
     0.039     0.575   0.176781E-01
     0.039     0.583   0.171547E-01
     0.039     0.591   0.166430E-01
     0.039     0.598   0.161432E-01
     0.039     0.606   0.156545E-01
     0.039     0.614   0.151771E-01
     0.039     0.622   0.147101E-01
     0.039     0.630   0.142539E-01
     0.039     0.638   0.138075E-01
     0.039     0.646   0.133712E-01
     0.039     0.654   0.129443E-01
     0.039     0.661   0.125268E-01
     0.039     0.669   0.121182E-01
     0.039     0.677   0.117185E-01
     0.039     0.685   0.113270E-01
     0.039     0.693   0.109440E-01
     0.039     0.701   0.105687E-01
     0.039     0.709   0.102014E-01
     0.039     0.717   0.984126E-02
     0.039     0.724   0.948856E-02
     0.039     0.732   0.914264E-02
     0.039     0.740   0.880364E-02
     0.039     0.748   0.847096E-02
     0.039     0.756   0.814473E-02
     0.039     0.764   0.782436E-02
     0.039     0.772   0.750999E-02
     0.039     0.780   0.720105E-02
     0.039     0.787   0.689765E-02
     0.039     0.795   0.659926E-02
     0.039     0.803   0.630597E-02
     0.039     0.811   0.601728E-02
     0.039     0.819   0.573326E-02
     0.039     0.827   0.545344E-02
     0.039     0.835   0.517787E-02
     0.039     0.843   0.490610E-02
     0.039     0.850   0.463818E-02
     0.039     0.858   0.437367E-02
     0.039     0.866   0.411259E-02
     0.039     0.874   0.385455E-02
     0.039     0.882   0.359956E-02
     0.039     0.890   0.334722E-02
     0.039     0.898   0.309754E-02
     0.039     0.906   0.285015E-02
     0.039     0.913   0.260502E-02
     0.039     0.921   0.236183E-02
     0.039     0.929   0.212052E-02
     0.039     0.937   0.188078E-02
     0.039     0.945   0.164254E-02
     0.039     0.953   0.140553E-02
     0.039     0.961   0.116963E-02
     0.039     0.969   0.934612E-03
     0.039     0.976   0.700337E-03
     0.039     0.984   0.466585E-03
     0.039     0.992   0.233205E-03
     0.039     1.000    0.00000    
     0.047     0.000   0.147877    
     0.047     0.008   0.144213    
     0.047     0.016   0.140636    
     0.047     0.024   0.137146    
     0.047     0.031   0.133740    
     0.047     0.039   0.130416    
     0.047     0.047   0.127172    
     0.047     0.055   0.124006    
     0.047     0.063   0.120916    
     0.047     0.071   0.117900    
     0.047     0.079   0.114958    
     0.047     0.087   0.112086    
     0.047     0.094   0.109283    
     0.047     0.102   0.106547    
     0.047     0.110   0.103877    
     0.047     0.118   0.101272    
     0.047     0.126   0.987287E-01
     0.047     0.134   0.962471E-01
     0.047     0.142   0.938249E-01
     0.047     0.150   0.914611E-01
     0.047     0.157   0.891540E-01
     0.047     0.165   0.869025E-01
     0.047     0.173   0.847050E-01
     0.047     0.181   0.825604E-01
     0.047     0.189   0.804672E-01
     0.047     0.197   0.784245E-01
     0.047     0.205   0.764307E-01
     0.047     0.213   0.744850E-01
     0.047     0.220   0.725858E-01
     0.047     0.228   0.707325E-01
     0.047     0.236   0.689235E-01
     0.047     0.244   0.671581E-01
     0.047     0.252   0.654350E-01
     0.047     0.260   0.637534E-01
     0.047     0.268   0.621120E-01
     0.047     0.276   0.605103E-01
     0.047     0.283   0.589468E-01
     0.047     0.291   0.574210E-01
     0.047     0.299   0.559317E-01
     0.047     0.307   0.544783E-01
     0.047     0.315   0.530596E-01
     0.047     0.323   0.516752E-01
     0.047     0.331   0.503237E-01
     0.047     0.339   0.490049E-01
     0.047     0.346   0.477175E-01
     0.047     0.354   0.464612E-01
     0.047     0.362   0.452348E-01
     0.047     0.370   0.440380E-01
     0.047     0.378   0.428696E-01
     0.047     0.386   0.417294E-01
     0.047     0.394   0.406163E-01
     0.047     0.402   0.395301E-01
     0.047     0.409   0.384696E-01
     0.047     0.417   0.374347E-01
     0.047     0.425   0.364242E-01
     0.047     0.433   0.354381E-01
     0.047     0.441   0.344753E-01
     0.047     0.449   0.335356E-01
     0.047     0.457   0.326181E-01
     0.047     0.465   0.317226E-01
     0.047     0.472   0.308481E-01
     0.047     0.480   0.299947E-01
     0.047     0.488   0.291611E-01