Title="Temperature Data"
Variables="X","Y","T"
 
Zone I=   128, J=   128, F=POINT
     0.000     0.000    0.00000    
     0.000     0.008    0.00000    
     0.000     0.016    0.00000    
     0.000     0.024    0.00000    
     0.000     0.031    0.00000    
     0.000     0.039    0.00000    
     0.000     0.047    0.00000    
     0.000     0.055    0.00000    
     0.000     0.063    0.00000    
     0.000     0.071    0.00000    
     0.000     0.079    0.00000    
     0.000     0.087    0.00000    
     0.000     0.094    0.00000    
     0.000     0.102    0.00000    
     0.000     0.110    0.00000    
     0.000     0.118    0.00000    
     0.000     0.126    0.00000    
     0.000     0.134    0.00000    
     0.000     0.142    0.00000    
     0.000     0.150    0.00000    
     0.000     0.157    0.00000    
     0.000     0.165    0.00000    
     0.000     0.173    0.00000    
     0.000     0.181    0.00000    
     0.000     0.189    0.00000    
     0.000     0.197    0.00000    
     0.000     0.205    0.00000    
     0.000     0.213    0.00000    
     0.000     0.220    0.00000    
     0.000     0.228    0.00000    
     0.000     0.236    0.00000    
     0.000     0.244    0.00000    
     0.000     0.252    0.00000    
     0.000     0.260    0.00000    
     0.000     0.268    0.00000    
     0.000     0.276    0.00000    
     0.000     0.283    0.00000    
     0.000     0.291    0.00000    
     0.000     0.299    0.00000    
     0.000     0.307    0.00000    
     0.000     0.315    0.00000    
     0.000     0.323    0.00000    
     0.000     0.331    0.00000    
     0.000     0.339    0.00000    
     0.000     0.346    0.00000    
     0.000     0.354    0.00000    
     0.000     0.362    0.00000    
     0.000     0.370    0.00000    
     0.000     0.378    0.00000    
     0.000     0.386    0.00000    
     0.000     0.394    0.00000    
     0.000     0.402    0.00000    
     0.000     0.409    0.00000    
     0.000     0.417    0.00000    
     0.000     0.425    0.00000    
     0.000     0.433    0.00000    
     0.000     0.441    0.00000    
     0.000     0.449    0.00000    
     0.000     0.457    0.00000    
     0.000     0.465    0.00000    
     0.000     0.472    0.00000    
     0.000     0.480    0.00000    
     0.000     0.488    0.00000    
     0.000     0.496    0.00000    
     0.000     0.504    0.00000    
     0.000     0.512    0.00000    
     0.000     0.520    0.00000    
     0.000     0.528    0.00000    
     0.000     0.535    0.00000    
     0.000     0.543    0.00000    
     0.000     0.551    0.00000    
     0.000     0.559    0.00000    
     0.000     0.567    0.00000    
     0.000     0.575    0.00000    
     0.000     0.583    0.00000    
     0.000     0.591    0.00000    
     0.000     0.598    0.00000    
     0.000     0.606    0.00000    
     0.000     0.614    0.00000    
     0.000     0.622    0.00000    
     0.000     0.630    0.00000    
     0.000     0.638    0.00000    
     0.000     0.646    0.00000    
     0.000     0.654    0.00000    
     0.000     0.661    0.00000    
     0.000     0.669    0.00000    
     0.000     0.677    0.00000    
     0.000     0.685    0.00000    
     0.000     0.693    0.00000    
     0.000     0.701    0.00000    
     0.000     0.709    0.00000    
     0.000     0.717    0.00000    
     0.000     0.724    0.00000    
     0.000     0.732    0.00000    
     0.000     0.740    0.00000    
     0.000     0.748    0.00000    
     0.000     0.756    0.00000    
     0.000     0.764    0.00000    
     0.000     0.772    0.00000    
     0.000     0.780    0.00000    
     0.000     0.787    0.00000    
     0.000     0.795    0.00000    
     0.000     0.803    0.00000    
     0.000     0.811    0.00000    
     0.000     0.819    0.00000    
     0.000     0.827    0.00000    
     0.000     0.835    0.00000    
     0.000     0.843    0.00000    
     0.000     0.850    0.00000    
     0.000     0.858    0.00000    
     0.000     0.866    0.00000    
     0.000     0.874    0.00000    
     0.000     0.882    0.00000    
     0.000     0.890    0.00000    
     0.000     0.898    0.00000    
     0.000     0.906    0.00000    
     0.000     0.913    0.00000    
     0.000     0.921    0.00000    
     0.000     0.929    0.00000    
     0.000     0.937    0.00000    
     0.000     0.945    0.00000    
     0.000     0.953    0.00000    
     0.000     0.961    0.00000    
     0.000     0.969    0.00000    
     0.000     0.976    0.00000    
     0.000     0.984    0.00000    
     0.000     0.992    0.00000    
     0.000     1.000    0.00000    
     0.008     0.000   0.247344E-01
     0.008     0.008  -0.111371E-01
     0.008     0.016  -0.195280E-01
     0.008     0.024  -0.237648E-01
     0.008     0.031  -0.254849E-01
     0.008     0.039  -0.258410E-01
     0.008     0.047  -0.259022E-01
     0.008     0.055  -0.259028E-01
     0.008     0.063  -0.259028E-01
     0.008     0.071  -0.259028E-01
     0.008     0.079  -0.259028E-01
     0.008     0.087  -0.259028E-01
     0.008     0.094  -0.259028E-01
     0.008     0.102  -0.259028E-01
     0.008     0.110  -0.259028E-01
     0.008     0.118  -0.259028E-01
     0.008     0.126  -0.259028E-01
     0.008     0.134  -0.259028E-01
     0.008     0.142  -0.259028E-01
     0.008     0.150  -0.259028E-01
     0.008     0.157  -0.259028E-01
     0.008     0.165  -0.259028E-01
     0.008     0.173  -0.259028E-01
     0.008     0.181  -0.259028E-01
     0.008     0.189  -0.259028E-01
     0.008     0.197  -0.259028E-01
     0.008     0.205  -0.259028E-01
     0.008     0.213  -0.259028E-01
     0.008     0.220  -0.259028E-01
     0.008     0.228  -0.259028E-01
     0.008     0.236  -0.259028E-01
     0.008     0.244  -0.259028E-01
     0.008     0.252  -0.259028E-01
     0.008     0.260  -0.259028E-01
     0.008     0.268  -0.259028E-01
     0.008     0.276  -0.259028E-01
     0.008     0.283  -0.259028E-01
     0.008     0.291  -0.259028E-01
     0.008     0.299  -0.259028E-01
     0.008     0.307  -0.259028E-01
     0.008     0.315  -0.259028E-01
     0.008     0.323  -0.259028E-01
     0.008     0.331  -0.259028E-01
     0.008     0.339  -0.259028E-01
     0.008     0.346  -0.259028E-01
     0.008     0.354  -0.259028E-01
     0.008     0.362  -0.259028E-01
     0.008     0.370  -0.259028E-01
     0.008     0.378  -0.259028E-01
     0.008     0.386  -0.259028E-01
     0.008     0.394  -0.259028E-01
     0.008     0.402  -0.259028E-01
     0.008     0.409  -0.259028E-01
     0.008     0.417  -0.259028E-01
     0.008     0.425  -0.259028E-01
     0.008     0.433  -0.259028E-01
     0.008     0.441  -0.259028E-01
     0.008     0.449  -0.259028E-01
     0.008     0.457  -0.259028E-01
     0.008     0.465  -0.259028E-01
     0.008     0.472  -0.259028E-01
     0.008     0.480  -0.259028E-01
     0.008     0.488  -0.259028E-01
     0.008     0.496  -0.259028E-01
     0.008     0.504  -0.259028E-01
     0.008     0.512  -0.259028E-01
     0.008     0.520  -0.259028E-01
     0.008     0.528  -0.259028E-01
     0.008     0.535  -0.259028E-01
     0.008     0.543  -0.259028E-01
     0.008     0.551  -0.259028E-01
     0.008     0.559  -0.259028E-01
     0.008     0.567  -0.259028E-01
     0.008     0.575  -0.259028E-01
     0.008     0.583  -0.259028E-01
     0.008     0.591  -0.259028E-01
     0.008     0.598  -0.259028E-01
     0.008     0.606  -0.259028E-01
     0.008     0.614  -0.259028E-01
     0.008     0.622  -0.259028E-01
     0.008     0.630  -0.259028E-01
     0.008     0.638  -0.259028E-01
     0.008     0.646  -0.259028E-01
     0.008     0.654  -0.259028E-01
     0.008     0.661  -0.259028E-01
     0.008     0.669  -0.259028E-01
     0.008     0.677  -0.259028E-01
     0.008     0.685  -0.259028E-01
     0.008     0.693  -0.259028E-01
     0.008     0.701  -0.259028E-01
     0.008     0.709  -0.259028E-01
     0.008     0.717  -0.259028E-01
     0.008     0.724  -0.259028E-01
     0.008     0.732  -0.259028E-01
     0.008     0.740  -0.259028E-01
     0.008     0.748  -0.259028E-01
     0.008     0.756  -0.259028E-01
     0.008     0.764  -0.259028E-01
     0.008     0.772  -0.259028E-01
     0.008     0.780  -0.259028E-01
     0.008     0.787  -0.259028E-01
     0.008     0.795  -0.259028E-01
     0.008     0.803  -0.259028E-01
     0.008     0.811  -0.259028E-01
     0.008     0.819  -0.259028E-01
     0.008     0.827  -0.259028E-01
     0.008     0.835  -0.259028E-01
     0.008     0.843  -0.259028E-01
     0.008     0.850  -0.259028E-01
     0.008     0.858  -0.259028E-01
     0.008     0.866  -0.259028E-01
     0.008     0.874  -0.259028E-01
     0.008     0.882  -0.259028E-01
     0.008     0.890  -0.259028E-01
     0.008     0.898  -0.259028E-01
     0.008     0.906  -0.259028E-01
     0.008     0.913  -0.259028E-01
     0.008     0.921  -0.259028E-01
     0.008     0.929  -0.259028E-01
     0.008     0.937  -0.259028E-01
     0.008     0.945  -0.259028E-01
     0.008     0.953  -0.259028E-01
     0.008     0.961  -0.258467E-01
     0.008     0.969  -0.255103E-01
     0.008     0.976  -0.238283E-01
     0.008     0.984  -0.196233E-01
     0.008     0.992  -0.112133E-01
     0.008     1.000    0.00000    
     0.016     0.000   0.494537E-01
     0.016     0.008  -0.194709E-01
     0.016     0.016  -0.334494E-01
     0.016     0.024  -0.410819E-01
     0.016     0.031  -0.436812E-01
     0.016     0.039  -0.443372E-01
     0.016     0.047  -0.444037E-01
     0.016     0.055  -0.444048E-01
     0.016     0.063  -0.444048E-01
     0.016     0.071  -0.444048E-01
     0.016     0.079  -0.444048E-01
     0.016     0.087  -0.444048E-01
     0.016     0.094  -0.444048E-01
     0.016     0.102  -0.444048E-01
     0.016     0.110  -0.444048E-01
     0.016     0.118  -0.444048E-01
     0.016     0.126  -0.444048E-01
     0.016     0.134  -0.444048E-01
     0.016     0.142  -0.444048E-01
     0.016     0.150  -0.444048E-01
     0.016     0.157  -0.444048E-01
     0.016     0.165  -0.444048E-01
     0.016     0.173  -0.444048E-01
     0.016     0.181  -0.444048E-01
     0.016     0.189  -0.444048E-01
     0.016     0.197  -0.444048E-01
     0.016     0.205  -0.444048E-01
     0.016     0.213  -0.444048E-01
     0.016     0.220  -0.444048E-01
     0.016     0.228  -0.444048E-01
     0.016     0.236  -0.444048E-01
     0.016     0.244  -0.444048E-01
     0.016     0.252  -0.444048E-01
     0.016     0.260  -0.444048E-01
     0.016     0.268  -0.444048E-01
     0.016     0.276  -0.444048E-01
     0.016     0.283  -0.444048E-01
     0.016     0.291  -0.444048E-01
     0.016     0.299  -0.444048E-01
     0.016     0.307  -0.444048E-01
     0.016     0.315  -0.444048E-01
     0.016     0.323  -0.444048E-01
     0.016     0.331  -0.444048E-01
     0.016     0.339  -0.444048E-01
     0.016     0.346  -0.444048E-01
     0.016     0.354  -0.444048E-01
     0.016     0.362  -0.444048E-01
     0.016     0.370  -0.444048E-01
     0.016     0.378  -0.444048E-01
     0.016     0.386  -0.444048E-01
     0.016     0.394  -0.444048E-01
     0.016     0.402  -0.444048E-01
     0.016     0.409  -0.444048E-01
     0.016     0.417  -0.444048E-01
     0.016     0.425  -0.444048E-01
     0.016     0.433  -0.444048E-01
     0.016     0.441  -0.444048E-01
     0.016     0.449  -0.444048E-01
     0.016     0.457  -0.444048E-01
     0.016     0.465  -0.444048E-01
     0.016     0.472  -0.444048E-01
     0.016     0.480  -0.444048E-01
     0.016     0.488  -0.444048E-01
     0.016     0.496  -0.444048E-01
     0.016     0.504  -0.444048E-01
     0.016     0.512  -0.444048E-01
     0.016     0.520  -0.444048E-01
     0.016     0.528  -0.444048E-01
     0.016     0.535  -0.444048E-01
     0.016     0.543  -0.444048E-01
     0.016     0.551  -0.444048E-01
     0.016     0.559  -0.444048E-01
     0.016     0.567  -0.444048E-01
     0.016     0.575  -0.444048E-01
     0.016     0.583  -0.444048E-01
     0.016     0.591  -0.444048E-01
     0.016     0.598  -0.444048E-01
     0.016     0.606  -0.444048E-01
     0.016     0.614  -0.444048E-01
     0.016     0.622  -0.444048E-01
     0.016     0.630  -0.444048E-01
     0.016     0.638  -0.444048E-01
     0.016     0.646  -0.444048E-01
     0.016     0.654  -0.444048E-01
     0.016     0.661  -0.444048E-01
     0.016     0.669  -0.444048E-01
     0.016     0.677  -0.444048E-01
     0.016     0.685  -0.444048E-01
     0.016     0.693  -0.444048E-01
     0.016     0.701  -0.444048E-01
     0.016     0.709  -0.444048E-01
     0.016     0.717  -0.444048E-01
     0.016     0.724  -0.444048E-01
     0.016     0.732  -0.444048E-01
     0.016     0.740  -0.444048E-01
     0.016     0.748  -0.444048E-01
     0.016     0.756  -0.444048E-01
     0.016     0.764  -0.444048E-01
     0.016     0.772  -0.444048E-01
     0.016     0.780  -0.444048E-01
     0.016     0.787  -0.444048E-01
     0.016     0.795  -0.444048E-01
     0.016     0.803  -0.444048E-01
     0.016     0.811  -0.444048E-01
     0.016     0.819  -0.444048E-01
     0.016     0.827  -0.444048E-01
     0.016     0.835  -0.444048E-01
     0.016     0.843  -0.444048E-01
     0.016     0.850  -0.444048E-01
     0.016     0.858  -0.444048E-01
     0.016     0.866  -0.444048E-01
     0.016     0.874  -0.444048E-01
     0.016     0.882  -0.444048E-01
     0.016     0.890  -0.444048E-01
     0.016     0.898  -0.444048E-01
     0.016     0.906  -0.444048E-01
     0.016     0.913  -0.444048E-01
     0.016     0.921  -0.444048E-01
     0.016     0.929  -0.444048E-01
     0.016     0.937  -0.444048E-01
     0.016     0.945  -0.444048E-01
     0.016     0.953  -0.444048E-01
     0.016     0.961  -0.443487E-01
     0.016     0.969  -0.437320E-01
     0.016     0.976  -0.412090E-01
     0.016     0.984  -0.336400E-01
     0.016     0.992  -0.196233E-01
     0.016     1.000    0.00000    
     0.024     0.000   0.741428E-01
     0.024     0.008  -0.235998E-01
     0.024     0.016  -0.409233E-01
     0.024     0.024  -0.497088E-01
     0.024     0.031  -0.529068E-01
     0.024     0.039  -0.535824E-01
     0.024     0.047  -0.536541E-01
     0.024     0.055  -0.536558E-01
     0.024     0.063  -0.536558E-01
     0.024     0.071  -0.536558E-01
     0.024     0.079  -0.536558E-01
     0.024     0.087  -0.536558E-01
     0.024     0.094  -0.536558E-01
     0.024     0.102  -0.536558E-01
     0.024     0.110  -0.536558E-01
     0.024     0.118  -0.536558E-01
     0.024     0.126  -0.536558E-01
     0.024     0.134  -0.536558E-01
     0.024     0.142  -0.536558E-01
     0.024     0.150  -0.536558E-01
     0.024     0.157  -0.536558E-01
     0.024     0.165  -0.536558E-01
     0.024     0.173  -0.536558E-01
     0.024     0.181  -0.536558E-01
     0.024     0.189  -0.536558E-01
     0.024     0.197  -0.536558E-01
     0.024     0.205  -0.536558E-01
     0.024     0.213  -0.536558E-01
     0.024     0.220  -0.536558E-01
     0.024     0.228  -0.536558E-01
     0.024     0.236  -0.536558E-01
     0.024     0.244  -0.536558E-01
     0.024     0.252  -0.536558E-01
     0.024     0.260  -0.536558E-01
     0.024     0.268  -0.536558E-01
     0.024     0.276  -0.536558E-01
     0.024     0.283  -0.536558E-01
     0.024     0.291  -0.536558E-01
     0.024     0.299  -0.536558E-01
     0.024     0.307  -0.536558E-01
     0.024     0.315  -0.536558E-01
     0.024     0.323  -0.536558E-01
     0.024     0.331  -0.536558E-01
     0.024     0.339  -0.536558E-01
     0.024     0.346  -0.536558E-01
     0.024     0.354  -0.536558E-01
     0.024     0.362  -0.536558E-01
     0.024     0.370  -0.536558E-01
     0.024     0.378  -0.536558E-01
     0.024     0.386  -0.536558E-01
     0.024     0.394  -0.536558E-01
     0.024     0.402  -0.536558E-01
     0.024     0.409  -0.536558E-01
     0.024     0.417  -0.536558E-01
     0.024     0.425  -0.536558E-01
     0.024     0.433  -0.536558E-01
     0.024     0.441  -0.536558E-01
     0.024     0.449  -0.536558E-01
     0.024     0.457  -0.536558E-01
     0.024     0.465  -0.536558E-01
     0.024     0.472  -0.536558E-01
     0.024     0.480  -0.536558E-01
     0.024     0.488  -0.536558E-01
     0.024     0.496  -0.536558E-01
     0.024     0.504  -0.536558E-01
     0.024     0.512  -0.536558E-01
     0.024     0.520  -0.536558E-01
     0.024     0.528  -0.536558E-01
     0.024     0.535  -0.536558E-01
     0.024     0.543  -0.536558E-01
     0.024     0.551  -0.536558E-01
     0.024     0.559  -0.536558E-01
     0.024     0.567  -0.536558E-01
     0.024     0.575  -0.536558E-01
     0.024     0.583  -0.536558E-01
     0.024     0.591  -0.536558E-01
     0.024     0.598  -0.536558E-01
     0.024     0.606  -0.536558E-01
     0.024     0.614  -0.536558E-01
     0.024     0.622  -0.536558E-01
     0.024     0.630  -0.536558E-01
     0.024     0.638  -0.536558E-01
     0.024     0.646  -0.536558E-01
     0.024     0.654  -0.536558E-01
     0.024     0.661  -0.536558E-01
     0.024     0.669  -0.536558E-01
     0.024     0.677  -0.536558E-01
     0.024     0.685  -0.536558E-01
     0.024     0.693  -0.536558E-01
     0.024     0.701  -0.536558E-01
     0.024     0.709  -0.536558E-01
     0.024     0.717  -0.536558E-01
     0.024     0.724  -0.536558E-01
     0.024     0.732  -0.536558E-01
     0.024     0.740  -0.536558E-01
     0.024     0.748  -0.536558E-01
     0.024     0.756  -0.536558E-01
     0.024     0.764  -0.536558E-01
     0.024     0.772  -0.536558E-01
     0.024     0.780  -0.536558E-01
     0.024     0.787  -0.536558E-01
     0.024     0.795  -0.536558E-01
     0.024     0.803  -0.536558E-01
     0.024     0.811  -0.536558E-01
     0.024     0.819  -0.536558E-01
     0.024     0.827  -0.536558E-01
     0.024     0.835  -0.536558E-01
     0.024     0.843  -0.536558E-01
     0.024     0.850  -0.536558E-01
     0.024     0.858  -0.536558E-01
     0.024     0.866  -0.536558E-01
     0.024     0.874  -0.536558E-01
     0.024     0.882  -0.536558E-01
     0.024     0.890  -0.536558E-01
     0.024     0.898  -0.536558E-01
     0.024     0.906  -0.536558E-01
     0.024     0.913  -0.536558E-01
     0.024     0.921  -0.536558E-01
     0.024     0.929  -0.536558E-01
     0.024     0.937  -0.536558E-01
     0.024     0.945  -0.536558E-01
     0.024     0.953  -0.536558E-01
     0.024     0.961  -0.535997E-01
     0.024     0.969  -0.529830E-01
     0.024     0.976  -0.498993E-01
     0.024     0.984  -0.412090E-01
     0.024     0.992  -0.238283E-01
     0.024     1.000    0.00000    
     0.031     0.000   0.987864E-01
     0.031     0.008  -0.252058E-01
     0.031     0.016  -0.433513E-01
     0.031     0.024  -0.527292E-01
     0.031     0.031  -0.559651E-01
     0.031     0.039  -0.566603E-01
     0.031     0.047  -0.567372E-01
     0.031     0.055  -0.567395E-01
     0.031     0.063  -0.567395E-01
     0.031     0.071  -0.567395E-01
     0.031     0.079  -0.567395E-01
     0.031     0.087  -0.567395E-01
     0.031     0.094  -0.567395E-01
     0.031     0.102  -0.567395E-01
     0.031     0.110  -0.567395E-01
     0.031     0.118  -0.567395E-01
     0.031     0.126  -0.567395E-01
     0.031     0.134  -0.567395E-01
     0.031     0.142  -0.567395E-01
     0.031     0.150  -0.567395E-01
     0.031     0.157  -0.567395E-01
     0.031     0.165  -0.567395E-01
     0.031     0.173  -0.567395E-01
     0.031     0.181  -0.567395E-01
     0.031     0.189  -0.567395E-01
     0.031     0.197  -0.567395E-01
     0.031     0.205  -0.567395E-01
     0.031     0.213  -0.567395E-01
     0.031     0.220  -0.567395E-01
     0.031     0.228  -0.567395E-01
     0.031     0.236  -0.567395E-01
     0.031     0.244  -0.567395E-01
     0.031     0.252  -0.567395E-01
     0.031     0.260  -0.567395E-01
     0.031     0.268  -0.567395E-01
     0.031     0.276  -0.567395E-01
     0.031     0.283  -0.567395E-01
     0.031     0.291  -0.567395E-01
     0.031     0.299  -0.567395E-01
     0.031     0.307  -0.567395E-01
     0.031     0.315  -0.567395E-01
     0.031     0.323  -0.567395E-01
     0.031     0.331  -0.567395E-01
     0.031     0.339  -0.567395E-01
     0.031     0.346  -0.567395E-01
     0.031     0.354  -0.567395E-01
     0.031     0.362  -0.567395E-01
     0.031     0.370  -0.567395E-01
     0.031     0.378  -0.567395E-01
     0.031     0.386  -0.567395E-01
     0.031     0.394  -0.567395E-01
     0.031     0.402  -0.567395E-01
     0.031     0.409  -0.567395E-01
     0.031     0.417  -0.567395E-01
     0.031     0.425  -0.567395E-01
     0.031     0.433  -0.567395E-01
     0.031     0.441  -0.567395E-01
     0.031     0.449  -0.567395E-01
     0.031     0.457  -0.567395E-01
     0.031     0.465  -0.567395E-01
     0.031     0.472  -0.567395E-01
     0.031     0.480  -0.567395E-01
     0.031     0.488  -0.567395E-01
     0.031     0.496  -0.567395E-01
     0.031     0.504  -0.567395E-01
     0.031     0.512  -0.567395E-01
     0.031     0.520  -0.567395E-01
     0.031     0.528  -0.567395E-01
     0.031     0.535  -0.567395E-01
     0.031     0.543  -0.567395E-01
     0.031     0.551  -0.567395E-01
     0.031     0.559  -0.567395E-01
     0.031     0.567  -0.567395E-01
     0.031     0.575  -0.567395E-01
     0.031     0.583  -0.567395E-01
     0.031     0.591  -0.567395E-01
     0.031     0.598  -0.567395E-01
     0.031     0.606  -0.567395E-01
     0.031     0.614  -0.567395E-01
     0.031     0.622  -0.567395E-01
     0.031     0.630  -0.567395E-01
     0.031     0.638  -0.567395E-01
     0.031     0.646  -0.567395E-01
     0.031     0.654  -0.567395E-01
     0.031     0.661  -0.567395E-01
     0.031     0.669  -0.567395E-01
     0.031     0.677  -0.567395E-01
     0.031     0.685  -0.567395E-01
     0.031     0.693  -0.567395E-01
     0.031     0.701  -0.567395E-01
     0.031     0.709  -0.567395E-01
     0.031     0.717  -0.567395E-01
     0.031     0.724  -0.567395E-01
     0.031     0.732  -0.567395E-01
     0.031     0.740  -0.567395E-01
     0.031     0.748  -0.567395E-01
     0.031     0.756  -0.567395E-01
     0.031     0.764  -0.567395E-01
     0.031     0.772  -0.567395E-01
     0.031     0.780  -0.567395E-01
     0.031     0.787  -0.567395E-01
     0.031     0.795  -0.567395E-01
     0.031     0.803  -0.567395E-01
     0.031     0.811  -0.567395E-01
     0.031     0.819  -0.567395E-01
     0.031     0.827  -0.567395E-01
     0.031     0.835  -0.567395E-01
     0.031     0.843  -0.567395E-01
     0.031     0.850  -0.567395E-01
     0.031     0.858  -0.567395E-01
     0.031     0.866  -0.567395E-01
     0.031     0.874  -0.567395E-01
     0.031     0.882  -0.567395E-01
     0.031     0.890  -0.567395E-01
     0.031     0.898  -0.567395E-01
     0.031     0.906  -0.567395E-01
     0.031     0.913  -0.567395E-01
     0.031     0.921  -0.567395E-01
     0.031     0.929  -0.567395E-01
     0.031     0.937  -0.567395E-01
     0.031     0.945  -0.567395E-01
     0.031     0.953  -0.567395E-01
     0.031     0.961  -0.566834E-01
     0.031     0.969  -0.560667E-01
     0.031     0.976  -0.529830E-01
     0.031     0.984  -0.437320E-01
     0.031     0.992  -0.255103E-01
     0.031     1.000    0.00000    
     0.039     0.000   0.123370    
     0.039     0.008  -0.254664E-01
     0.039     0.016  -0.438733E-01
     0.039     0.024  -0.532827E-01
     0.039     0.031  -0.565566E-01
     0.039     0.039  -0.572713E-01
     0.039     0.047  -0.573533E-01
     0.039     0.055  -0.573562E-01
     0.039     0.063  -0.573562E-01
     0.039     0.071  -0.573562E-01
     0.039     0.079  -0.573562E-01
     0.039     0.087  -0.573562E-01
     0.039     0.094  -0.573562E-01
     0.039     0.102  -0.573562E-01
     0.039     0.110  -0.573562E-01
     0.039     0.118  -0.573562E-01
     0.039     0.126  -0.573562E-01
     0.039     0.134  -0.573562E-01
     0.039     0.142  -0.573562E-01
     0.039     0.150  -0.573562E-01
     0.039     0.157  -0.573562E-01
     0.039     0.165  -0.573562E-01
     0.039     0.173  -0.573562E-01
     0.039     0.181  -0.573562E-01
     0.039     0.189  -0.573562E-01
     0.039     0.197  -0.573562E-01
     0.039     0.205  -0.573562E-01
     0.039     0.213  -0.573562E-01
     0.039     0.220  -0.573562E-01
     0.039     0.228  -0.573562E-01
     0.039     0.236  -0.573562E-01
     0.039     0.244  -0.573562E-01
     0.039     0.252  -0.573562E-01
     0.039     0.260  -0.573562E-01
     0.039     0.268  -0.573562E-01
     0.039     0.276  -0.573562E-01
     0.039     0.283  -0.573562E-01
     0.039     0.291  -0.573562E-01
     0.039     0.299  -0.573562E-01
     0.039     0.307  -0.573562E-01
     0.039     0.315  -0.573562E-01
     0.039     0.323  -0.573562E-01
     0.039     0.331  -0.573562E-01
     0.039     0.339  -0.573562E-01
     0.039     0.346  -0.573562E-01
     0.039     0.354  -0.573562E-01
     0.039     0.362  -0.573562E-01
     0.039     0.370  -0.573562E-01
     0.039     0.378  -0.573562E-01
     0.039     0.386  -0.573562E-01
     0.039     0.394  -0.573562E-01
     0.039     0.402  -0.573562E-01
     0.039     0.409  -0.573562E-01
     0.039     0.417  -0.573562E-01
     0.039     0.425  -0.573562E-01
     0.039     0.433  -0.573562E-01
     0.039     0.441  -0.573562E-01
     0.039     0.449  -0.573562E-01
     0.039     0.457  -0.573562E-01
     0.039     0.465  -0.573562E-01
     0.039     0.472  -0.573562E-01
     0.039     0.480  -0.573562E-01
     0.039     0.488  -0.573562E-01
     0.039     0.496  -0.573562E-01
     0.039     0.504  -0.573562E-01
     0.039     0.512  -0.573562E-01
     0.039     0.520  -0.573562E-01
     0.039     0.528  -0.573562E-01
     0.039     0.535  -0.573562E-01
     0.039     0.543  -0.573562E-01
     0.039     0.551  -0.573562E-01
     0.039     0.559  -0.573562E-01
     0.039     0.567  -0.573562E-01
     0.039     0.575  -0.573562E-01
     0.039     0.583  -0.573562E-01
     0.039     0.591  -0.573562E-01
     0.039     0.598  -0.573562E-01
     0.039     0.606  -0.573562E-01
     0.039     0.614  -0.573562E-01
     0.039     0.622  -0.573562E-01
     0.039     0.630  -0.573562E-01
     0.039     0.638  -0.573562E-01
     0.039     0.646  -0.573562E-01
     0.039     0.654  -0.573562E-01
     0.039     0.661  -0.573562E-01
     0.039     0.669  -0.573562E-01
     0.039     0.677  -0.573562E-01
     0.039     0.685  -0.573562E-01
     0.039     0.693  -0.573562E-01
     0.039     0.701  -0.573562E-01
     0.039     0.709  -0.573562E-01
     0.039     0.717  -0.573562E-01
     0.039     0.724  -0.573562E-01
     0.039     0.732  -0.573562E-01
     0.039     0.740  -0.573562E-01
     0.039     0.748  -0.573562E-01
     0.039     0.756  -0.573562E-01
     0.039     0.764  -0.573562E-01
     0.039     0.772  -0.573562E-01
     0.039     0.780  -0.573562E-01
     0.039     0.787  -0.573562E-01
     0.039     0.795  -0.573562E-01
     0.039     0.803  -0.573562E-01
     0.039     0.811  -0.573562E-01
     0.039     0.819  -0.573562E-01
     0.039     0.827  -0.573562E-01
     0.039     0.835  -0.573562E-01
     0.039     0.843  -0.573562E-01
     0.039     0.850  -0.573562E-01
     0.039     0.858  -0.573562E-01
     0.039     0.866  -0.573562E-01
     0.039     0.874  -0.573562E-01
     0.039     0.882  -0.573562E-01
     0.039     0.890  -0.573562E-01
     0.039     0.898  -0.573562E-01
     0.039     0.906  -0.573562E-01
     0.039     0.913  -0.573562E-01
     0.039     0.921  -0.573562E-01
     0.039     0.929  -0.573562E-01
     0.039     0.937  -0.573562E-01
     0.039     0.945  -0.573562E-01
     0.039     0.953  -0.573562E-01
     0.039     0.961  -0.573001E-01
     0.039     0.969  -0.566834E-01
     0.039     0.976  -0.535997E-01
     0.039     0.984  -0.443487E-01
     0.039     0.992  -0.258467E-01
     0.039     1.000    0.00000    
     0.047     0.000   0.147877    
     0.047     0.008  -0.254469E-01
     0.047     0.016  -0.438349E-01
     0.047     0.024  -0.532758E-01
     0.047     0.031  -0.565875E-01
     0.047     0.039  -0.573216E-01
     0.047     0.047  -0.574088E-01
     0.047     0.055  -0.574123E-01
     0.047     0.063  -0.574123E-01
     0.047     0.071  -0.574123E-01
     0.047     0.079  -0.574123E-01
     0.047     0.087  -0.574123E-01
     0.047     0.094  -0.574123E-01
     0.047     0.102  -0.574123E-01
     0.047     0.110  -0.574123E-01
     0.047     0.118  -0.574123E-01
     0.047     0.126  -0.574123E-01
     0.047     0.134  -0.574123E-01
     0.047     0.142  -0.574123E-01
     0.047     0.150  -0.574123E-01
     0.047     0.157  -0.574123E-01
     0.047     0.165  -0.574123E-01
     0.047     0.173  -0.574123E-01
     0.047     0.181  -0.574123E-01
     0.047     0.189  -0.574123E-01
     0.047     0.197  -0.574123E-01
     0.047     0.205  -0.574123E-01
     0.047     0.213  -0.574123E-01
     0.047     0.220  -0.574123E-01
     0.047     0.228  -0.574123E-01
     0.047     0.236  -0.574123E-01
     0.047     0.244  -0.574123E-01
     0.047     0.252  -0.574123E-01
     0.047     0.260  -0.574123E-01
     0.047     0.268  -0.574123E-01
     0.047     0.276  -0.574123E-01
     0.047     0.283  -0.574123E-01
     0.047     0.291  -0.574123E-01
     0.047     0.299  -0.574123E-01
     0.047     0.307  -0.574123E-01
     0.047     0.315  -0.574123E-01
     0.047     0.323  -0.574123E-01
     0.047     0.331  -0.574123E-01
     0.047     0.339  -0.574123E-01
     0.047     0.346  -0.574123E-01
     0.047     0.354  -0.574123E-01
     0.047     0.362  -0.574123E-01
     0.047     0.370  -0.574123E-01
     0.047     0.378  -0.574123E-01
     0.047     0.386  -0.574123E-01
     0.047     0.394  -0.574123E-01
     0.047     0.402  -0.574123E-01
     0.047     0.409  -0.574123E-01
     0.047     0.417  -0.574123E-01
     0.047     0.425  -0.574123E-01
     0.047     0.433  -0.574123E-01
     0.047     0.441  -0.574123E-01
     0.047     0.449  -0.574123E-01
     0.047     0.457  -0.574123E-01
     0.047     0.465  -0.574123E-01
     0.047     0.472  -0.574123E-01
     0.047     0.480  -0.574123E-01
     0.047     0.488  -0.574123E-01