Title="Temperature Data"
Variables="X","Y","T"
 
Zone I=   128, J=   128, F=POINT
     0.000     0.000    0.00000    
     0.000     0.008    0.00000    
     0.000     0.016    0.00000    
     0.000     0.024    0.00000    
     0.000     0.031    0.00000    
     0.000     0.039    0.00000    
     0.000     0.047    0.00000    
     0.000     0.055    0.00000    
     0.000     0.063    0.00000    
     0.000     0.071    0.00000    
     0.000     0.079    0.00000    
     0.000     0.087    0.00000    
     0.000     0.094    0.00000    
     0.000     0.102    0.00000    
     0.000     0.110    0.00000    
     0.000     0.118    0.00000    
     0.000     0.126    0.00000    
     0.000     0.134    0.00000    
     0.000     0.142    0.00000    
     0.000     0.150    0.00000    
     0.000     0.157    0.00000    
     0.000     0.165    0.00000    
     0.000     0.173    0.00000    
     0.000     0.181    0.00000    
     0.000     0.189    0.00000    
     0.000     0.197    0.00000    
     0.000     0.205    0.00000    
     0.000     0.213    0.00000    
     0.000     0.220    0.00000    
     0.000     0.228    0.00000    
     0.000     0.236    0.00000    
     0.000     0.244    0.00000    
     0.000     0.252    0.00000    
     0.000     0.260    0.00000    
     0.000     0.268    0.00000    
     0.000     0.276    0.00000    
     0.000     0.283    0.00000    
     0.000     0.291    0.00000    
     0.000     0.299    0.00000    
     0.000     0.307    0.00000    
     0.000     0.315    0.00000    
     0.000     0.323    0.00000    
     0.000     0.331    0.00000    
     0.000     0.339    0.00000    
     0.000     0.346    0.00000    
     0.000     0.354    0.00000    
     0.000     0.362    0.00000    
     0.000     0.370    0.00000    
     0.000     0.378    0.00000    
     0.000     0.386    0.00000    
     0.000     0.394    0.00000    
     0.000     0.402    0.00000    
     0.000     0.409    0.00000    
     0.000     0.417    0.00000    
     0.000     0.425    0.00000    
     0.000     0.433    0.00000    
     0.000     0.441    0.00000    
     0.000     0.449    0.00000    
     0.000     0.457    0.00000    
     0.000     0.465    0.00000    
     0.000     0.472    0.00000    
     0.000     0.480    0.00000    
     0.000     0.488    0.00000    
     0.000     0.496    0.00000    
     0.000     0.504    0.00000    
     0.000     0.512    0.00000    
     0.000     0.520    0.00000    
     0.000     0.528    0.00000    
     0.000     0.535    0.00000    
     0.000     0.543    0.00000    
     0.000     0.551    0.00000    
     0.000     0.559    0.00000    
     0.000     0.567    0.00000    
     0.000     0.575    0.00000    
     0.000     0.583    0.00000    
     0.000     0.591    0.00000    
     0.000     0.598    0.00000    
     0.000     0.606    0.00000    
     0.000     0.614    0.00000    
     0.000     0.622    0.00000    
     0.000     0.630    0.00000    
     0.000     0.638    0.00000    
     0.000     0.646    0.00000    
     0.000     0.654    0.00000    
     0.000     0.661    0.00000    
     0.000     0.669    0.00000    
     0.000     0.677    0.00000    
     0.000     0.685    0.00000    
     0.000     0.693    0.00000    
     0.000     0.701    0.00000    
     0.000     0.709    0.00000    
     0.000     0.717    0.00000    
     0.000     0.724    0.00000    
     0.000     0.732    0.00000    
     0.000     0.740    0.00000    
     0.000     0.748    0.00000    
     0.000     0.756    0.00000    
     0.000     0.764    0.00000    
     0.000     0.772    0.00000    
     0.000     0.780    0.00000    
     0.000     0.787    0.00000    
     0.000     0.795    0.00000    
     0.000     0.803    0.00000    
     0.000     0.811    0.00000    
     0.000     0.819    0.00000    
     0.000     0.827    0.00000    
     0.000     0.835    0.00000    
     0.000     0.843    0.00000    
     0.000     0.850    0.00000    
     0.000     0.858    0.00000    
     0.000     0.866    0.00000    
     0.000     0.874    0.00000    
     0.000     0.882    0.00000    
     0.000     0.890    0.00000    
     0.000     0.898    0.00000    
     0.000     0.906    0.00000    
     0.000     0.913    0.00000    
     0.000     0.921    0.00000    
     0.000     0.929    0.00000    
     0.000     0.937    0.00000    
     0.000     0.945    0.00000    
     0.000     0.953    0.00000    
     0.000     0.961    0.00000    
     0.000     0.969    0.00000    
     0.000     0.976    0.00000    
     0.000     0.984    0.00000    
     0.000     0.992    0.00000    
     0.000     1.000    0.00000    
     0.008     0.000   0.247344E-01
     0.008     0.008   0.241255E-01
     0.008     0.016   0.235314E-01
     0.008     0.024   0.229516E-01
     0.008     0.031   0.223860E-01
     0.008     0.039   0.218340E-01
     0.008     0.047   0.212954E-01
     0.008     0.055   0.207698E-01
     0.008     0.063   0.202570E-01
     0.008     0.071   0.197566E-01
     0.008     0.079   0.192683E-01
     0.008     0.087   0.187918E-01
     0.008     0.094   0.183269E-01
     0.008     0.102   0.178732E-01
     0.008     0.110   0.174304E-01
     0.008     0.118   0.169984E-01
     0.008     0.126   0.165768E-01
     0.008     0.134   0.161654E-01
     0.008     0.142   0.157640E-01
     0.008     0.150   0.153722E-01
     0.008     0.157   0.149899E-01
     0.008     0.165   0.146168E-01
     0.008     0.173   0.142527E-01
     0.008     0.181   0.138974E-01
     0.008     0.189   0.135507E-01
     0.008     0.197   0.132123E-01
     0.008     0.205   0.128821E-01
     0.008     0.213   0.125598E-01
     0.008     0.220   0.122453E-01
     0.008     0.228   0.119383E-01
     0.008     0.236   0.116388E-01
     0.008     0.244   0.113464E-01
     0.008     0.252   0.110610E-01
     0.008     0.260   0.107825E-01
     0.008     0.268   0.105107E-01
     0.008     0.276   0.102454E-01
     0.008     0.283   0.998643E-02
     0.008     0.291   0.973367E-02
     0.008     0.299   0.948697E-02
     0.008     0.307   0.924615E-02
     0.008     0.315   0.901110E-02
     0.008     0.323   0.878164E-02
     0.008     0.331   0.855766E-02
     0.008     0.339   0.833901E-02
     0.008     0.346   0.812557E-02
     0.008     0.354   0.791719E-02
     0.008     0.362   0.771377E-02
     0.008     0.370   0.751516E-02
     0.008     0.378   0.732127E-02
     0.008     0.386   0.713194E-02
     0.008     0.394   0.694711E-02
     0.008     0.402   0.676661E-02
     0.008     0.409   0.659038E-02
     0.008     0.417   0.641828E-02
     0.008     0.425   0.625023E-02
     0.008     0.433   0.608610E-02
     0.008     0.441   0.592582E-02
     0.008     0.449   0.576926E-02
     0.008     0.457   0.561636E-02
     0.008     0.465   0.546699E-02
     0.008     0.472   0.532109E-02
     0.008     0.480   0.517855E-02
     0.008     0.488   0.503931E-02
     0.008     0.496   0.490325E-02
     0.008     0.504   0.477032E-02
     0.008     0.512   0.464040E-02
     0.008     0.520   0.451345E-02
     0.008     0.528   0.438936E-02
     0.008     0.535   0.426809E-02
     0.008     0.543   0.414952E-02
     0.008     0.551   0.403363E-02
     0.008     0.559   0.392029E-02
     0.008     0.567   0.380949E-02
     0.008     0.575   0.370111E-02
     0.008     0.583   0.359512E-02
     0.008     0.591   0.349142E-02
     0.008     0.598   0.338998E-02
     0.008     0.606   0.329071E-02
     0.008     0.614   0.319358E-02
     0.008     0.622   0.309849E-02
     0.008     0.630   0.300542E-02
     0.008     0.638   0.291427E-02
     0.008     0.646   0.282503E-02
     0.008     0.654   0.273760E-02
     0.008     0.661   0.265197E-02
     0.008     0.669   0.256803E-02
     0.008     0.677   0.248579E-02
     0.008     0.685   0.240514E-02
     0.008     0.693   0.232608E-02
     0.008     0.701   0.224851E-02
     0.008     0.709   0.217243E-02
     0.008     0.717   0.209776E-02
     0.008     0.724   0.202447E-02
     0.008     0.732   0.195249E-02
     0.008     0.740   0.188180E-02
     0.008     0.748   0.181234E-02
     0.008     0.756   0.174407E-02
     0.008     0.764   0.167694E-02
     0.008     0.772   0.161093E-02
     0.008     0.780   0.154596E-02
     0.008     0.787   0.148202E-02
     0.008     0.795   0.141905E-02
     0.008     0.803   0.135702E-02
     0.008     0.811   0.129588E-02
     0.008     0.819   0.123561E-02
     0.008     0.827   0.117614E-02
     0.008     0.835   0.111746E-02
     0.008     0.843   0.105952E-02
     0.008     0.850   0.100228E-02
     0.008     0.858   0.945696E-03
     0.008     0.866   0.889750E-03
     0.008     0.874   0.834387E-03
     0.008     0.882   0.779585E-03
     0.008     0.890   0.725294E-03
     0.008     0.898   0.671492E-03
     0.008     0.906   0.618131E-03
     0.008     0.913   0.565186E-03
     0.008     0.921   0.512612E-03
     0.008     0.929   0.460385E-03
     0.008     0.937   0.408459E-03
     0.008     0.945   0.356810E-03
     0.008     0.953   0.305395E-03
     0.008     0.961   0.254187E-03
     0.008     0.969   0.203145E-03
     0.008     0.976   0.152241E-03
     0.008     0.984   0.101437E-03
     0.008     0.992   0.507020E-04
     0.008     1.000    0.00000    
     0.016     0.000   0.494537E-01
     0.016     0.008   0.482363E-01
     0.016     0.016   0.470484E-01
     0.016     0.024   0.458892E-01
     0.016     0.031   0.447582E-01
     0.016     0.039   0.436546E-01
     0.016     0.047   0.425777E-01
     0.016     0.055   0.415269E-01
     0.016     0.063   0.405016E-01
     0.016     0.071   0.395011E-01
     0.016     0.079   0.385248E-01
     0.016     0.087   0.375721E-01
     0.016     0.094   0.366425E-01
     0.016     0.102   0.357354E-01
     0.016     0.110   0.348502E-01
     0.016     0.118   0.339864E-01
     0.016     0.126   0.331435E-01
     0.016     0.134   0.323209E-01
     0.016     0.142   0.315183E-01
     0.016     0.150   0.307350E-01
     0.016     0.157   0.299706E-01
     0.016     0.165   0.292247E-01
     0.016     0.173   0.284967E-01
     0.016     0.181   0.277864E-01
     0.016     0.189   0.270931E-01
     0.016     0.197   0.264166E-01
     0.016     0.205   0.257563E-01
     0.016     0.213   0.251120E-01
     0.016     0.220   0.244831E-01
     0.016     0.228   0.238694E-01
     0.016     0.236   0.232704E-01
     0.016     0.244   0.226858E-01
     0.016     0.252   0.221153E-01
     0.016     0.260   0.215585E-01
     0.016     0.268   0.210150E-01
     0.016     0.276   0.204845E-01
     0.016     0.283   0.199667E-01
     0.016     0.291   0.194614E-01
     0.016     0.299   0.189681E-01
     0.016     0.307   0.184867E-01
     0.016     0.315   0.180167E-01
     0.016     0.323   0.175579E-01
     0.016     0.331   0.171101E-01
     0.016     0.339   0.166729E-01
     0.016     0.346   0.162462E-01
     0.016     0.354   0.158296E-01
     0.016     0.362   0.154228E-01
     0.016     0.370   0.150257E-01
     0.016     0.378   0.146380E-01
     0.016     0.386   0.142595E-01
     0.016     0.394   0.138899E-01
     0.016     0.402   0.135291E-01
     0.016     0.409   0.131767E-01
     0.016     0.417   0.128326E-01
     0.016     0.425   0.124966E-01
     0.016     0.433   0.121685E-01
     0.016     0.441   0.118480E-01
     0.016     0.449   0.115350E-01
     0.016     0.457   0.112293E-01
     0.016     0.465   0.109306E-01
     0.016     0.472   0.106389E-01
     0.016     0.480   0.103540E-01
     0.016     0.488   0.100755E-01
     0.016     0.496   0.980351E-02
     0.016     0.504   0.953769E-02
     0.016     0.512   0.927798E-02
     0.016     0.520   0.902412E-02
     0.016     0.528   0.877606E-02
     0.016     0.535   0.853355E-02
     0.016     0.543   0.829653E-02
     0.016     0.551   0.806477E-02
     0.016     0.559   0.783821E-02
     0.016     0.567   0.761663E-02
     0.016     0.575   0.739996E-02
     0.016     0.583   0.718801E-02
     0.016     0.591   0.698072E-02
     0.016     0.598   0.677787E-02
     0.016     0.606   0.657943E-02
     0.016     0.614   0.638519E-02
     0.016     0.622   0.619510E-02
     0.016     0.630   0.600898E-02
     0.016     0.638   0.582678E-02
     0.016     0.646   0.564832E-02
     0.016     0.654   0.547355E-02
     0.016     0.661   0.530229E-02
     0.016     0.669   0.513451E-02
     0.016     0.677   0.497004E-02
     0.016     0.685   0.480883E-02
     0.016     0.693   0.465072E-02
     0.016     0.701   0.449567E-02
     0.016     0.709   0.434353E-02
     0.016     0.717   0.419425E-02
     0.016     0.724   0.404768E-02
     0.016     0.732   0.390380E-02
     0.016     0.740   0.376244E-02
     0.016     0.748   0.362358E-02
     0.016     0.756   0.348707E-02
     0.016     0.764   0.335287E-02
     0.016     0.772   0.322085E-02
     0.016     0.780   0.309098E-02
     0.016     0.787   0.296312E-02
     0.016     0.795   0.283724E-02
     0.016     0.803   0.271320E-02
     0.016     0.811   0.259098E-02
     0.016     0.819   0.247045E-02
     0.016     0.827   0.235157E-02
     0.016     0.835   0.223423E-02
     0.016     0.843   0.211839E-02
     0.016     0.850   0.200393E-02
     0.016     0.858   0.189082E-02
     0.016     0.866   0.177895E-02
     0.016     0.874   0.166827E-02
     0.016     0.882   0.155869E-02
     0.016     0.890   0.145015E-02
     0.016     0.898   0.134257E-02
     0.016     0.906   0.123589E-02
     0.016     0.913   0.113002E-02
     0.016     0.921   0.102492E-02
     0.016     0.929   0.920483E-03
     0.016     0.937   0.816672E-03
     0.016     0.945   0.713398E-03
     0.016     0.953   0.610606E-03
     0.016     0.961   0.508215E-03
     0.016     0.969   0.406168E-03
     0.016     0.976   0.304388E-03
     0.016     0.984   0.202813E-03
     0.016     0.992   0.101372E-03
     0.016     1.000    0.00000    
     0.024     0.000   0.741428E-01
     0.024     0.008   0.723175E-01
     0.024     0.016   0.705365E-01
     0.024     0.024   0.687987E-01
     0.024     0.031   0.671031E-01
     0.024     0.039   0.654485E-01
     0.024     0.047   0.638340E-01
     0.024     0.055   0.622586E-01
     0.024     0.063   0.607214E-01
     0.024     0.071   0.592214E-01
     0.024     0.079   0.577577E-01
     0.024     0.087   0.563294E-01
     0.024     0.094   0.549357E-01
     0.024     0.102   0.535757E-01
     0.024     0.110   0.522486E-01
     0.024     0.118   0.509536E-01
     0.024     0.126   0.496899E-01
     0.024     0.134   0.484567E-01
     0.024     0.142   0.472533E-01
     0.024     0.150   0.460790E-01
     0.024     0.157   0.449330E-01
     0.024     0.165   0.438147E-01
     0.024     0.173   0.427233E-01
     0.024     0.181   0.416583E-01
     0.024     0.189   0.406189E-01
     0.024     0.197   0.396046E-01
     0.024     0.205   0.386148E-01
     0.024     0.213   0.376487E-01
     0.024     0.220   0.367059E-01
     0.024     0.228   0.357858E-01
     0.024     0.236   0.348878E-01
     0.024     0.244   0.340114E-01
     0.024     0.252   0.331560E-01
     0.024     0.260   0.323212E-01
     0.024     0.268   0.315064E-01
     0.024     0.276   0.307111E-01
     0.024     0.283   0.299349E-01
     0.024     0.291   0.291772E-01
     0.024     0.299   0.284377E-01
     0.024     0.307   0.277158E-01
     0.024     0.315   0.270112E-01
     0.024     0.323   0.263234E-01
     0.024     0.331   0.256521E-01
     0.024     0.339   0.249966E-01
     0.024     0.346   0.243568E-01
     0.024     0.354   0.237322E-01
     0.024     0.362   0.231224E-01
     0.024     0.370   0.225271E-01
     0.024     0.378   0.219459E-01
     0.024     0.386   0.213784E-01
     0.024     0.394   0.208243E-01
     0.024     0.402   0.202833E-01
     0.024     0.409   0.197550E-01
     0.024     0.417   0.192391E-01
     0.024     0.425   0.187354E-01
     0.024     0.433   0.182434E-01
     0.024     0.441   0.177629E-01
     0.024     0.449   0.172936E-01
     0.024     0.457   0.168353E-01
     0.024     0.465   0.163876E-01
     0.024     0.472   0.159503E-01
     0.024     0.480   0.155230E-01
     0.024     0.488   0.151056E-01
     0.024     0.496   0.146977E-01
     0.024     0.504   0.142993E-01
     0.024     0.512   0.139098E-01
     0.024     0.520   0.135293E-01
     0.024     0.528   0.131573E-01
     0.024     0.535   0.127938E-01
     0.024     0.543   0.124384E-01
     0.024     0.551   0.120910E-01
     0.024     0.559   0.117513E-01
     0.024     0.567   0.114191E-01
     0.024     0.575   0.110943E-01
     0.024     0.583   0.107766E-01
     0.024     0.591   0.104657E-01
     0.024     0.598   0.101617E-01
     0.024     0.606   0.986408E-02
     0.024     0.614   0.957293E-02
     0.024     0.622   0.928789E-02
     0.024     0.630   0.900890E-02
     0.024     0.638   0.873569E-02
     0.024     0.646   0.846818E-02
     0.024     0.654   0.820611E-02
     0.024     0.661   0.794941E-02
     0.024     0.669   0.769782E-02
     0.024     0.677   0.745128E-02
     0.024     0.685   0.720954E-02
     0.024     0.693   0.697254E-02
     0.024     0.701   0.674004E-02
     0.024     0.709   0.651199E-02
     0.024     0.717   0.628814E-02
     0.024     0.724   0.606845E-02
     0.024     0.732   0.585269E-02
     0.024     0.740   0.564080E-02
     0.024     0.748   0.543257E-02
     0.024     0.756   0.522795E-02
     0.024     0.764   0.502672E-02
     0.024     0.772   0.482884E-02
     0.024     0.780   0.463409E-02
     0.024     0.787   0.444244E-02
     0.024     0.795   0.425367E-02
     0.024     0.803   0.406775E-02
     0.024     0.811   0.388448E-02
     0.024     0.819   0.370380E-02
     0.024     0.827   0.352555E-02
     0.024     0.835   0.334966E-02
     0.024     0.843   0.317595E-02
     0.024     0.850   0.300438E-02
     0.024     0.858   0.283477E-02
     0.024     0.866   0.266707E-02
     0.024     0.874   0.250112E-02
     0.024     0.882   0.233685E-02
     0.024     0.890   0.217411E-02
     0.024     0.898   0.201283E-02
     0.024     0.906   0.185288E-02
     0.024     0.913   0.169417E-02
     0.024     0.921   0.153658E-02
     0.024     0.929   0.138003E-02
     0.024     0.937   0.122438E-02
     0.024     0.945   0.106956E-02
     0.024     0.953   0.915438E-03
     0.024     0.961   0.761938E-03
     0.024     0.969   0.608939E-03
     0.024     0.976   0.456351E-03
     0.024     0.984   0.304064E-03
     0.024     0.992   0.151982E-03
     0.024     1.000    0.00000    
     0.031     0.000   0.987864E-01
     0.031     0.008   0.963545E-01
     0.031     0.016   0.939816E-01
     0.031     0.024   0.916662E-01
     0.031     0.031   0.894069E-01
     0.031     0.039   0.872024E-01
     0.031     0.047   0.850512E-01
     0.031     0.055   0.829522E-01
     0.031     0.063   0.809040E-01
     0.031     0.071   0.789055E-01
     0.031     0.079   0.769553E-01
     0.031     0.087   0.750523E-01
     0.031     0.094   0.731953E-01
     0.031     0.102   0.713833E-01
     0.031     0.110   0.696151E-01
     0.031     0.118   0.678896E-01
     0.031     0.126   0.662059E-01
     0.031     0.134   0.645628E-01
     0.031     0.142   0.629594E-01
     0.031     0.150   0.613948E-01
     0.031     0.157   0.598679E-01
     0.031     0.165   0.583778E-01
     0.031     0.173   0.569237E-01
     0.031     0.181   0.555047E-01
     0.031     0.189   0.541199E-01
     0.031     0.197   0.527685E-01
     0.031     0.205   0.514496E-01
     0.031     0.213   0.501625E-01
     0.031     0.220   0.489063E-01
     0.031     0.228   0.476803E-01
     0.031     0.236   0.464838E-01
     0.031     0.244   0.453161E-01
     0.031     0.252   0.441764E-01
     0.031     0.260   0.430641E-01
     0.031     0.268   0.419785E-01
     0.031     0.276   0.409189E-01
     0.031     0.283   0.398846E-01
     0.031     0.291   0.388752E-01
     0.031     0.299   0.378898E-01
     0.031     0.307   0.369281E-01
     0.031     0.315   0.359892E-01
     0.031     0.323   0.350729E-01
     0.031     0.331   0.341783E-01
     0.031     0.339   0.333051E-01
     0.031     0.346   0.324525E-01
     0.031     0.354   0.316204E-01
     0.031     0.362   0.308079E-01
     0.031     0.370   0.300147E-01
     0.031     0.378   0.292403E-01
     0.031     0.386   0.284842E-01
     0.031     0.394   0.277459E-01
     0.031     0.402   0.270251E-01
     0.031     0.409   0.263212E-01
     0.031     0.417   0.256339E-01
     0.031     0.425   0.249626E-01
     0.031     0.433   0.243072E-01
     0.031     0.441   0.236670E-01
     0.031     0.449   0.230418E-01
     0.031     0.457   0.224310E-01
     0.031     0.465   0.218345E-01
     0.031     0.472   0.212518E-01
     0.031     0.480   0.206826E-01
     0.031     0.488   0.201264E-01
     0.031     0.496   0.195830E-01
     0.031     0.504   0.190520E-01
     0.031     0.512   0.185332E-01
     0.031     0.520   0.180262E-01
     0.031     0.528   0.175306E-01
     0.031     0.535   0.170462E-01
     0.031     0.543   0.165728E-01
     0.031     0.551   0.161098E-01
     0.031     0.559   0.156572E-01
     0.031     0.567   0.152146E-01
     0.031     0.575   0.147818E-01
     0.031     0.583   0.143584E-01
     0.031     0.591   0.139444E-01
     0.031     0.598   0.135392E-01
     0.031     0.606   0.131428E-01
     0.031     0.614   0.127548E-01
     0.031     0.622   0.123750E-01
     0.031     0.630   0.120033E-01
     0.031     0.638   0.116393E-01
     0.031     0.646   0.112828E-01
     0.031     0.654   0.109337E-01
     0.031     0.661   0.105916E-01
     0.031     0.669   0.102565E-01
     0.031     0.677   0.992791E-02
     0.031     0.685   0.960588E-02
     0.031     0.693   0.929005E-02
     0.031     0.701   0.898034E-02
     0.031     0.709   0.867642E-02
     0.031     0.717   0.837823E-02
     0.031     0.724   0.808546E-02
     0.031     0.732   0.779804E-02
     0.031     0.740   0.751567E-02
     0.031     0.748   0.723829E-02
     0.031     0.756   0.696560E-02
     0.031     0.764   0.669754E-02
     0.031     0.772   0.643383E-02
     0.031     0.780   0.617440E-02
     0.031     0.787   0.591899E-02
     0.031     0.795   0.566753E-02
     0.031     0.803   0.541977E-02
     0.031     0.811   0.517562E-02
     0.031     0.819   0.493486E-02
     0.031     0.827   0.469739E-02
     0.031     0.835   0.446300E-02
     0.031     0.843   0.423160E-02
     0.031     0.850   0.400296E-02
     0.031     0.858   0.377702E-02
     0.031     0.866   0.355354E-02
     0.031     0.874   0.333246E-02
     0.031     0.882   0.311356E-02
     0.031     0.890   0.289675E-02
     0.031     0.898   0.268185E-02
     0.031     0.906   0.246875E-02
     0.031     0.913   0.225728E-02
     0.031     0.921   0.204732E-02
     0.031     0.929   0.183871E-02
     0.031     0.937   0.163135E-02
     0.031     0.945   0.142505E-02
     0.031     0.953   0.121972E-02
     0.031     0.961   0.101519E-02
     0.031     0.969   0.811342E-03
     0.031     0.976   0.608031E-03
     0.031     0.984   0.405131E-03
     0.031     0.992   0.202497E-03
     0.031     1.000    0.00000    
     0.039     0.000   0.123370    
     0.039     0.008   0.120333    
     0.039     0.016   0.117369    
     0.039     0.024   0.114477    
     0.039     0.031   0.111656    
     0.039     0.039   0.108903    
     0.039     0.047   0.106216    
     0.039     0.055   0.103595    
     0.039     0.063   0.101037    
     0.039     0.071   0.985413E-01
     0.039     0.079   0.961058E-01
     0.039     0.087   0.937292E-01
     0.039     0.094   0.914101E-01
     0.039     0.102   0.891472E-01
     0.039     0.110   0.869389E-01
     0.039     0.118   0.847841E-01
     0.039     0.126   0.826813E-01
     0.039     0.134   0.806294E-01
     0.039     0.142   0.786270E-01
     0.039     0.150   0.766730E-01
     0.039     0.157   0.747661E-01
     0.039     0.165   0.729053E-01
     0.039     0.173   0.710894E-01
     0.039     0.181   0.693172E-01
     0.039     0.189   0.675878E-01
     0.039     0.197   0.659000E-01
     0.039     0.205   0.642529E-01
     0.039     0.213   0.626455E-01
     0.039     0.220   0.610767E-01
     0.039     0.228   0.595457E-01
     0.039     0.236   0.580515E-01
     0.039     0.244   0.565931E-01
     0.039     0.252   0.551699E-01
     0.039     0.260   0.537807E-01
     0.039     0.268   0.524249E-01
     0.039     0.276   0.511016E-01
     0.039     0.283   0.498100E-01
     0.039     0.291   0.485493E-01
     0.039     0.299   0.473188E-01
     0.039     0.307   0.461177E-01
     0.039     0.315   0.449453E-01
     0.039     0.323   0.438008E-01
     0.039     0.331   0.426837E-01
     0.039     0.339   0.415931E-01
     0.039     0.346   0.405285E-01
     0.039     0.354   0.394891E-01
     0.039     0.362   0.384745E-01
     0.039     0.370   0.374839E-01
     0.039     0.378   0.365168E-01
     0.039     0.386   0.355725E-01
     0.039     0.394   0.346506E-01
     0.039     0.402   0.337503E-01
     0.039     0.409   0.328713E-01
     0.039     0.417   0.320129E-01
     0.039     0.425   0.311747E-01
     0.039     0.433   0.303560E-01
     0.039     0.441   0.295566E-01
     0.039     0.449   0.287757E-01
     0.039     0.457   0.280131E-01
     0.039     0.465   0.272681E-01
     0.039     0.472   0.265404E-01
     0.039     0.480   0.258294E-01
     0.039     0.488   0.251349E-01
     0.039     0.496   0.244563E-01
     0.039     0.504   0.237932E-01
     0.039     0.512   0.231452E-01
     0.039     0.520   0.225121E-01
     0.039     0.528   0.218931E-01
     0.039     0.535   0.212883E-01
     0.039     0.543   0.206969E-01
     0.039     0.551   0.201188E-01
     0.039     0.559   0.195535E-01
     0.039     0.567   0.190009E-01
     0.039     0.575   0.184603E-01
     0.039     0.583   0.179316E-01
     0.039     0.591   0.174144E-01
     0.039     0.598   0.169085E-01
     0.039     0.606   0.164133E-01
     0.039     0.614   0.159288E-01
     0.039     0.622   0.154546E-01
     0.039     0.630   0.149903E-01
     0.039     0.638   0.145357E-01
     0.039     0.646   0.140906E-01
     0.039     0.654   0.136545E-01
     0.039     0.661   0.132274E-01
     0.039     0.669   0.128088E-01
     0.039     0.677   0.123985E-01
     0.039     0.685   0.119963E-01
     0.039     0.693   0.116019E-01
     0.039     0.701   0.112151E-01
     0.039     0.709   0.108356E-01
     0.039     0.717   0.104631E-01
     0.039     0.724   0.100976E-01
     0.039     0.732   0.973857E-02
     0.039     0.740   0.938600E-02
     0.039     0.748   0.903952E-02
     0.039     0.756   0.869903E-02
     0.039     0.764   0.836420E-02
     0.039     0.772   0.803493E-02
     0.039     0.780   0.771089E-02
     0.039     0.787   0.739198E-02
     0.039     0.795   0.707789E-02
     0.039     0.803   0.676852E-02
     0.039     0.811   0.646356E-02
     0.039     0.819   0.616293E-02
     0.039     0.827   0.586633E-02
     0.039     0.835   0.557365E-02
     0.039     0.843   0.528462E-02
     0.039     0.850   0.499913E-02
     0.039     0.858   0.471692E-02
     0.039     0.866   0.443787E-02
     0.039     0.874   0.416173E-02
     0.039     0.882   0.388839E-02
     0.039     0.890   0.361760E-02
     0.039     0.898   0.334925E-02
     0.039     0.906   0.308309E-02
     0.039     0.913   0.281902E-02
     0.039     0.921   0.255679E-02
     0.039     0.929   0.229629E-02
     0.039     0.937   0.203730E-02
     0.039     0.945   0.177969E-02
     0.039     0.953   0.152324E-02
     0.039     0.961   0.126782E-02
     0.039     0.969   0.101324E-02
     0.039     0.976   0.759344E-03
     0.039     0.984   0.505946E-03
     0.039     0.992   0.252890E-03
     0.039     1.000    0.00000    
     0.047     0.000   0.147877    
     0.047     0.008   0.144237    
     0.047     0.016   0.140685    
     0.047     0.024   0.137219    
     0.047     0.031   0.133837    
     0.047     0.039   0.130537    
     0.047     0.047   0.127317    
     0.047     0.055   0.124175    
     0.047     0.063   0.121109    
     0.047     0.071   0.118117    
     0.047     0.079   0.115197    
     0.047     0.087   0.112349    
     0.047     0.094   0.109569    
     0.047     0.102   0.106857    
     0.047     0.110   0.104210    
     0.047     0.118   0.101627    
     0.047     0.126   0.991062E-01
     0.047     0.134   0.966467E-01
     0.047     0.142   0.942465E-01
     0.047     0.150   0.919043E-01
     0.047     0.157   0.896186E-01
     0.047     0.165   0.873882E-01
     0.047     0.173   0.852114E-01
     0.047     0.181   0.830873E-01
     0.047     0.189   0.810143E-01
     0.047     0.197   0.789913E-01
     0.047     0.205   0.770169E-01
     0.047     0.213   0.750902E-01
     0.047     0.220   0.732098E-01
     0.047     0.228   0.713746E-01
     0.047     0.236   0.695835E-01
     0.047     0.244   0.678356E-01
     0.047     0.252   0.661295E-01
     0.047     0.260   0.644645E-01
     0.047     0.268   0.628393E-01
     0.047     0.276   0.612531E-01
     0.047     0.283   0.597049E-01
     0.047     0.291   0.581938E-01
     0.047     0.299   0.567188E-01
     0.047     0.307   0.552791E-01
     0.047     0.315   0.538737E-01
     0.047     0.323   0.525020E-01
     0.047     0.331   0.511628E-01
     0.047     0.339   0.498557E-01
     0.047     0.346   0.485795E-01
     0.047     0.354   0.473338E-01
     0.047     0.362   0.461175E-01
     0.047     0.370   0.449302E-01
     0.047     0.378   0.437709E-01
     0.047     0.386   0.426391E-01
     0.047     0.394   0.415340E-01
     0.047     0.402   0.404550E-01
     0.047     0.409   0.394012E-01
     0.047     0.417   0.383724E-01
     0.047     0.425   0.373676E-01
     0.047     0.433   0.363864E-01
     0.047     0.441   0.354281E-01
     0.047     0.449   0.344922E-01
     0.047     0.457   0.335779E-01
     0.047     0.465   0.326850E-01
     0.047     0.472   0.318127E-01
     0.047     0.480   0.309606E-01
     0.047     0.488   0.301280E-01