Title="Temperature Data"
Variables="X","Y","T"
 
Zone I=   128, J=   128, F=POINT
     0.000     0.000    0.00000    
     0.000     0.008    0.00000    
     0.000     0.016    0.00000    
     0.000     0.024    0.00000    
     0.000     0.031    0.00000    
     0.000     0.039    0.00000    
     0.000     0.047    0.00000    
     0.000     0.055    0.00000    
     0.000     0.063    0.00000    
     0.000     0.071    0.00000    
     0.000     0.079    0.00000    
     0.000     0.087    0.00000    
     0.000     0.094    0.00000    
     0.000     0.102    0.00000    
     0.000     0.110    0.00000    
     0.000     0.118    0.00000    
     0.000     0.126    0.00000    
     0.000     0.134    0.00000    
     0.000     0.142    0.00000    
     0.000     0.150    0.00000    
     0.000     0.157    0.00000    
     0.000     0.165    0.00000    
     0.000     0.173    0.00000    
     0.000     0.181    0.00000    
     0.000     0.189    0.00000    
     0.000     0.197    0.00000    
     0.000     0.205    0.00000    
     0.000     0.213    0.00000    
     0.000     0.220    0.00000    
     0.000     0.228    0.00000    
     0.000     0.236    0.00000    
     0.000     0.244    0.00000    
     0.000     0.252    0.00000    
     0.000     0.260    0.00000    
     0.000     0.268    0.00000    
     0.000     0.276    0.00000    
     0.000     0.283    0.00000    
     0.000     0.291    0.00000    
     0.000     0.299    0.00000    
     0.000     0.307    0.00000    
     0.000     0.315    0.00000    
     0.000     0.323    0.00000    
     0.000     0.331    0.00000    
     0.000     0.339    0.00000    
     0.000     0.346    0.00000    
     0.000     0.354    0.00000    
     0.000     0.362    0.00000    
     0.000     0.370    0.00000    
     0.000     0.378    0.00000    
     0.000     0.386    0.00000    
     0.000     0.394    0.00000    
     0.000     0.402    0.00000    
     0.000     0.409    0.00000    
     0.000     0.417    0.00000    
     0.000     0.425    0.00000    
     0.000     0.433    0.00000    
     0.000     0.441    0.00000    
     0.000     0.449    0.00000    
     0.000     0.457    0.00000    
     0.000     0.465    0.00000    
     0.000     0.472    0.00000    
     0.000     0.480    0.00000    
     0.000     0.488    0.00000    
     0.000     0.496    0.00000    
     0.000     0.504    0.00000    
     0.000     0.512   0.247344E-01
     0.000     0.520    0.00000    
     0.000     0.528    0.00000    
     0.000     0.535    0.00000    
     0.000     0.543    0.00000    
     0.000     0.551    0.00000    
     0.000     0.559    0.00000    
     0.000     0.567    0.00000    
     0.000     0.575    0.00000    
     0.000     0.583    0.00000    
     0.000     0.591    0.00000    
     0.000     0.598    0.00000    
     0.000     0.606    0.00000    
     0.000     0.614    0.00000    
     0.000     0.622    0.00000    
     0.000     0.630    0.00000    
     0.000     0.638    0.00000    
     0.000     0.646    0.00000    
     0.000     0.654    0.00000    
     0.000     0.661    0.00000    
     0.000     0.669    0.00000    
     0.000     0.677    0.00000    
     0.000     0.685    0.00000    
     0.000     0.693    0.00000    
     0.000     0.701    0.00000    
     0.000     0.709    0.00000    
     0.000     0.717    0.00000    
     0.000     0.724    0.00000    
     0.000     0.732    0.00000    
     0.000     0.740    0.00000    
     0.000     0.748    0.00000    
     0.000     0.756    0.00000    
     0.000     0.764    0.00000    
     0.000     0.772    0.00000    
     0.000     0.780    0.00000    
     0.000     0.787    0.00000    
     0.000     0.795    0.00000    
     0.000     0.803    0.00000    
     0.000     0.811    0.00000    
     0.000     0.819    0.00000    
     0.000     0.827    0.00000    
     0.000     0.835    0.00000    
     0.000     0.843    0.00000    
     0.000     0.850    0.00000    
     0.000     0.858    0.00000    
     0.000     0.866    0.00000    
     0.000     0.874    0.00000    
     0.000     0.882    0.00000    
     0.000     0.890    0.00000    
     0.000     0.898    0.00000    
     0.000     0.906    0.00000    
     0.000     0.913    0.00000    
     0.000     0.921    0.00000    
     0.000     0.929    0.00000    
     0.000     0.937    0.00000    
     0.000     0.945    0.00000    
     0.000     0.953    0.00000    
     0.000     0.961    0.00000    
     0.000     0.969    0.00000    
     0.000     0.976    0.00000    
     0.000     0.984    0.00000    
     0.000     0.992    0.00000    
     0.000     1.000    0.00000    
     0.008     0.000   0.247344E-01
     0.008     0.008   0.241270E-01
     0.008     0.016   0.235343E-01
     0.008     0.024   0.229560E-01
     0.008     0.031   0.223918E-01
     0.008     0.039   0.218413E-01
     0.008     0.047   0.213041E-01
     0.008     0.055   0.207800E-01
     0.008     0.063   0.202686E-01
     0.008     0.071   0.197697E-01
     0.008     0.079   0.192828E-01
     0.008     0.087   0.188078E-01
     0.008     0.094   0.183442E-01
     0.008     0.102   0.178920E-01
     0.008     0.110   0.174507E-01
     0.008     0.118   0.170200E-01
     0.008     0.126   0.165999E-01
     0.008     0.134   0.161899E-01
     0.008     0.142   0.157898E-01
     0.008     0.150   0.153994E-01
     0.008     0.157   0.150185E-01
     0.008     0.165   0.146468E-01
     0.008     0.173   0.142841E-01
     0.008     0.181   0.139302E-01
     0.008     0.189   0.135848E-01
     0.008     0.197   0.132478E-01
     0.008     0.205   0.129189E-01
     0.008     0.213   0.125980E-01
     0.008     0.220   0.122848E-01
     0.008     0.228   0.119792E-01
     0.008     0.236   0.116810E-01
     0.008     0.244   0.113900E-01
     0.008     0.252   0.111061E-01
     0.008     0.260   0.108290E-01
     0.008     0.268   0.105586E-01
     0.008     0.276   0.102947E-01
     0.008     0.283   0.100372E-01
     0.008     0.291   0.978599E-02
     0.008     0.299   0.954085E-02
     0.008     0.307   0.930167E-02
     0.008     0.315   0.906831E-02
     0.008     0.323   0.884066E-02
     0.008     0.331   0.861859E-02
     0.008     0.339   0.840199E-02
     0.008     0.346   0.819077E-02
     0.008     0.354   0.798483E-02
     0.008     0.362   0.778411E-02
     0.008     0.370   0.758853E-02
     0.008     0.378   0.739809E-02
     0.008     0.386   0.721275E-02
     0.008     0.394   0.703258E-02
     0.008     0.402   0.685767E-02
     0.008     0.409   0.668820E-02
     0.008     0.417   0.652449E-02
     0.008     0.425   0.636707E-02
     0.008     0.433   0.621676E-02
     0.008     0.441   0.607497E-02
     0.008     0.449   0.594405E-02
     0.008     0.457   0.582819E-02
     0.008     0.465   0.573524E-02
     0.008     0.472   0.568112E-02
     0.008     0.480   0.570112E-02
     0.008     0.488   0.588241E-02
     0.008     0.496   0.646633E-02
     0.008     0.504   0.820298E-02
     0.008     0.512   0.136818E-01
     0.008     0.520   0.794601E-02
     0.008     0.528   0.595224E-02
     0.008     0.535   0.511085E-02
     0.008     0.543   0.467165E-02
     0.008     0.551   0.439309E-02
     0.008     0.559   0.418787E-02
     0.008     0.567   0.402053E-02
     0.008     0.575   0.387500E-02
     0.008     0.583   0.374325E-02
     0.008     0.591   0.362096E-02
     0.008     0.598   0.350558E-02
     0.008     0.606   0.339558E-02
     0.008     0.614   0.328994E-02
     0.008     0.622   0.318799E-02
     0.008     0.630   0.308923E-02
     0.008     0.638   0.299332E-02
     0.008     0.646   0.289997E-02
     0.008     0.654   0.280901E-02
     0.008     0.661   0.272023E-02
     0.008     0.669   0.263351E-02
     0.008     0.677   0.254872E-02
     0.008     0.685   0.246577E-02
     0.008     0.693   0.238455E-02
     0.008     0.701   0.230500E-02
     0.008     0.709   0.222702E-02
     0.008     0.717   0.215056E-02
     0.008     0.724   0.207554E-02
     0.008     0.732   0.200192E-02
     0.008     0.740   0.192962E-02
     0.008     0.748   0.185861E-02
     0.008     0.756   0.178881E-02
     0.008     0.764   0.172019E-02
     0.008     0.772   0.165269E-02
     0.008     0.780   0.158628E-02
     0.008     0.787   0.152089E-02
     0.008     0.795   0.145649E-02
     0.008     0.803   0.139303E-02
     0.008     0.811   0.133048E-02
     0.008     0.819   0.126878E-02
     0.008     0.827   0.120790E-02
     0.008     0.835   0.114780E-02
     0.008     0.843   0.108844E-02
     0.008     0.850   0.102978E-02
     0.008     0.858   0.971787E-03
     0.008     0.866   0.914413E-03
     0.008     0.874   0.857630E-03
     0.008     0.882   0.801394E-03
     0.008     0.890   0.745675E-03
     0.008     0.898   0.690432E-03
     0.008     0.906   0.635635E-03
     0.008     0.913   0.581243E-03
     0.008     0.921   0.527225E-03
     0.008     0.929   0.473544E-03
     0.008     0.937   0.420167E-03
     0.008     0.945   0.367059E-03
     0.008     0.953   0.314187E-03
     0.008     0.961   0.261515E-03
     0.008     0.969   0.209012E-03
     0.008     0.976   0.156641E-03
     0.008     0.984   0.104372E-03
     0.008     0.992   0.521693E-04
     0.008     1.000    0.00000    
     0.016     0.000   0.494537E-01
     0.016     0.008   0.482392E-01
     0.016     0.016   0.470542E-01
     0.016     0.024   0.458980E-01
     0.016     0.031   0.447699E-01
     0.016     0.039   0.436692E-01
     0.016     0.047   0.425952E-01
     0.016     0.055   0.415473E-01
     0.016     0.063   0.405249E-01
     0.016     0.071   0.395272E-01
     0.016     0.079   0.385538E-01
     0.016     0.087   0.376040E-01
     0.016     0.094   0.366773E-01
     0.016     0.102   0.357730E-01
     0.016     0.110   0.348906E-01
     0.016     0.118   0.340297E-01
     0.016     0.126   0.331896E-01
     0.016     0.134   0.323698E-01
     0.016     0.142   0.315699E-01
     0.016     0.150   0.307894E-01
     0.016     0.157   0.300278E-01
     0.016     0.165   0.292847E-01
     0.016     0.173   0.285595E-01
     0.016     0.181   0.278518E-01
     0.016     0.189   0.271613E-01
     0.016     0.197   0.264875E-01
     0.016     0.205   0.258299E-01
     0.016     0.213   0.251883E-01
     0.016     0.220   0.245621E-01
     0.016     0.228   0.239511E-01
     0.016     0.236   0.233549E-01
     0.016     0.244   0.227731E-01
     0.016     0.252   0.222053E-01
     0.016     0.260   0.216513E-01
     0.016     0.268   0.211106E-01
     0.016     0.276   0.205830E-01
     0.016     0.283   0.200682E-01
     0.016     0.291   0.195659E-01
     0.016     0.299   0.190758E-01
     0.016     0.307   0.185976E-01
     0.016     0.315   0.181310E-01
     0.016     0.323   0.176758E-01
     0.016     0.331   0.172317E-01
     0.016     0.339   0.167987E-01
     0.016     0.346   0.163763E-01
     0.016     0.354   0.159645E-01
     0.016     0.362   0.155631E-01
     0.016     0.370   0.151720E-01
     0.016     0.378   0.147911E-01
     0.016     0.386   0.144204E-01
     0.016     0.394   0.140599E-01
     0.016     0.402   0.137099E-01
     0.016     0.409   0.133707E-01
     0.016     0.417   0.130428E-01
     0.016     0.425   0.127271E-01
     0.016     0.433   0.124251E-01
     0.016     0.441   0.121391E-01
     0.016     0.449   0.118731E-01
     0.016     0.457   0.116335E-01
     0.016     0.465   0.114317E-01
     0.016     0.472   0.112881E-01
     0.016     0.480   0.112410E-01
     0.016     0.488   0.113622E-01
     0.016     0.496   0.117800E-01
     0.016     0.504   0.126638E-01
     0.016     0.512   0.138439E-01
     0.016     0.520   0.121500E-01
     0.016     0.528   0.107521E-01
     0.016     0.535   0.981957E-02
     0.016     0.543   0.918270E-02
     0.016     0.551   0.871288E-02
     0.016     0.559   0.833791E-02
     0.016     0.567   0.801931E-02
     0.016     0.575   0.773625E-02
     0.016     0.583   0.747712E-02
     0.016     0.591   0.723503E-02
     0.016     0.598   0.700585E-02
     0.016     0.606   0.678684E-02
     0.016     0.614   0.657625E-02
     0.016     0.622   0.637281E-02
     0.016     0.630   0.617566E-02
     0.016     0.638   0.598409E-02
     0.016     0.646   0.579763E-02
     0.016     0.654   0.561585E-02
     0.016     0.661   0.543845E-02
     0.016     0.669   0.526512E-02
     0.016     0.677   0.509565E-02
     0.016     0.685   0.492983E-02
     0.016     0.693   0.476749E-02
     0.016     0.701   0.460844E-02
     0.016     0.709   0.445256E-02
     0.016     0.717   0.429970E-02
     0.016     0.724   0.414974E-02
     0.016     0.732   0.400254E-02
     0.016     0.740   0.385801E-02
     0.016     0.748   0.371602E-02
     0.016     0.756   0.357649E-02
     0.016     0.764   0.343929E-02
     0.016     0.772   0.330434E-02
     0.016     0.780   0.317155E-02
     0.016     0.787   0.304082E-02
     0.016     0.795   0.291206E-02
     0.016     0.803   0.278519E-02
     0.016     0.811   0.266011E-02
     0.016     0.819   0.253677E-02
     0.016     0.827   0.241505E-02
     0.016     0.835   0.229489E-02
     0.016     0.843   0.217620E-02
     0.016     0.850   0.205893E-02
     0.016     0.858   0.194297E-02
     0.016     0.866   0.182826E-02
     0.016     0.874   0.171472E-02
     0.016     0.882   0.160229E-02
     0.016     0.890   0.149089E-02
     0.016     0.898   0.138044E-02
     0.016     0.906   0.127087E-02
     0.016     0.913   0.116213E-02
     0.016     0.921   0.105412E-02
     0.016     0.929   0.946796E-03
     0.016     0.937   0.840073E-03
     0.016     0.945   0.733892E-03
     0.016     0.953   0.628178E-03
     0.016     0.961   0.522869E-03
     0.016     0.969   0.417893E-03
     0.016     0.976   0.313187E-03
     0.016     0.984   0.208679E-03
     0.016     0.992   0.104306E-03
     0.016     1.000    0.00000    
     0.024     0.000   0.741428E-01
     0.024     0.008   0.723219E-01
     0.024     0.016   0.705453E-01
     0.024     0.024   0.688119E-01
     0.024     0.031   0.671206E-01
     0.024     0.039   0.654704E-01
     0.024     0.047   0.638602E-01
     0.024     0.055   0.622892E-01
     0.024     0.063   0.607563E-01
     0.024     0.071   0.592606E-01
     0.024     0.079   0.578012E-01
     0.024     0.087   0.563773E-01
     0.024     0.094   0.549878E-01
     0.024     0.102   0.536321E-01
     0.024     0.110   0.523092E-01
     0.024     0.118   0.510185E-01
     0.024     0.126   0.497590E-01
     0.024     0.134   0.485300E-01
     0.024     0.142   0.473308E-01
     0.024     0.150   0.461606E-01
     0.024     0.157   0.450188E-01
     0.024     0.165   0.439045E-01
     0.024     0.173   0.428173E-01
     0.024     0.181   0.417564E-01
     0.024     0.189   0.407211E-01
     0.024     0.197   0.397109E-01
     0.024     0.205   0.387251E-01
     0.024     0.213   0.377631E-01
     0.024     0.220   0.368244E-01
     0.024     0.228   0.359083E-01
     0.024     0.236   0.350144E-01
     0.024     0.244   0.341421E-01
     0.024     0.252   0.332909E-01
     0.024     0.260   0.324602E-01
     0.024     0.268   0.316497E-01
     0.024     0.276   0.308587E-01
     0.024     0.283   0.300869E-01
     0.024     0.291   0.293337E-01
     0.024     0.299   0.285989E-01
     0.024     0.307   0.278819E-01
     0.024     0.315   0.271823E-01
     0.024     0.323   0.264998E-01
     0.024     0.331   0.258340E-01
     0.024     0.339   0.251847E-01
     0.024     0.346   0.245514E-01
     0.024     0.354   0.239338E-01
     0.024     0.362   0.233319E-01
     0.024     0.370   0.227453E-01
     0.024     0.378   0.221740E-01
     0.024     0.386   0.216179E-01
     0.024     0.394   0.210770E-01
     0.024     0.402   0.205515E-01
     0.024     0.409   0.200419E-01
     0.024     0.417   0.195489E-01
     0.024     0.425   0.190734E-01
     0.024     0.433   0.186174E-01
     0.024     0.441   0.181834E-01
     0.024     0.449   0.177758E-01
     0.024     0.457   0.174012E-01
     0.024     0.465   0.170700E-01
     0.024     0.472   0.167989E-01
     0.024     0.480   0.166127E-01
     0.024     0.488   0.165455E-01
     0.024     0.496   0.166278E-01
     0.024     0.504   0.168285E-01
     0.024     0.512   0.168802E-01
     0.024     0.520   0.160582E-01
     0.024     0.528   0.150867E-01
     0.024     0.535   0.142327E-01
     0.024     0.543   0.135268E-01
     0.024     0.551   0.129379E-01
     0.024     0.559   0.124317E-01
     0.024     0.567   0.119826E-01
     0.024     0.575   0.115737E-01
     0.024     0.583   0.111940E-01
     0.024     0.591   0.108363E-01
     0.024     0.598   0.104960E-01
     0.024     0.606   0.101698E-01
     0.024     0.614   0.985547E-02
     0.024     0.622   0.955147E-02
     0.024     0.630   0.925655E-02
     0.024     0.638   0.896987E-02
     0.024     0.646   0.869067E-02
     0.024     0.654   0.841843E-02
     0.024     0.661   0.815265E-02
     0.024     0.669   0.789296E-02
     0.024     0.677   0.763900E-02
     0.024     0.685   0.739051E-02
     0.024     0.693   0.714718E-02
     0.024     0.701   0.690881E-02
     0.024     0.709   0.667515E-02
     0.024     0.717   0.644603E-02
     0.024     0.724   0.622122E-02
     0.024     0.732   0.600058E-02
     0.024     0.740   0.578390E-02
     0.024     0.748   0.557106E-02
     0.024     0.756   0.536187E-02
     0.024     0.764   0.515621E-02
     0.024     0.772   0.495389E-02
     0.024     0.780   0.475482E-02
     0.024     0.787   0.455883E-02
     0.024     0.795   0.436580E-02
     0.024     0.803   0.417559E-02
     0.024     0.811   0.398809E-02
     0.024     0.819   0.380316E-02
     0.024     0.827   0.362069E-02
     0.024     0.835   0.344054E-02
     0.024     0.843   0.326262E-02
     0.024     0.850   0.308678E-02
     0.024     0.858   0.291294E-02
     0.024     0.866   0.274097E-02
     0.024     0.874   0.257076E-02
     0.024     0.882   0.240219E-02
     0.024     0.890   0.223518E-02
     0.024     0.898   0.206959E-02
     0.024     0.906   0.190533E-02
     0.024     0.913   0.174229E-02
     0.024     0.921   0.158037E-02
     0.024     0.929   0.141946E-02
     0.024     0.937   0.125946E-02
     0.024     0.945   0.110027E-02
     0.024     0.953   0.941784E-03
     0.024     0.961   0.783898E-03
     0.024     0.969   0.626518E-03
     0.024     0.976   0.469537E-03
     0.024     0.984   0.312858E-03
     0.024     0.992   0.156379E-03
     0.024     1.000    0.00000    
     0.031     0.000   0.987864E-01
     0.031     0.008   0.963603E-01
     0.031     0.016   0.939932E-01
     0.031     0.024   0.916837E-01
     0.031     0.031   0.894302E-01
     0.031     0.039   0.872315E-01
     0.031     0.047   0.850862E-01
     0.031     0.055   0.829929E-01
     0.031     0.063   0.809505E-01
     0.031     0.071   0.789577E-01
     0.031     0.079   0.770133E-01
     0.031     0.087   0.751160E-01
     0.031     0.094   0.732647E-01
     0.031     0.102   0.714584E-01
     0.031     0.110   0.696958E-01
     0.031     0.118   0.679760E-01
     0.031     0.126   0.662979E-01
     0.031     0.134   0.646604E-01
     0.031     0.142   0.630626E-01
     0.031     0.150   0.615035E-01
     0.031     0.157   0.599821E-01
     0.031     0.165   0.584976E-01
     0.031     0.173   0.570489E-01
     0.031     0.181   0.556354E-01
     0.031     0.189   0.542560E-01
     0.031     0.197   0.529100E-01
     0.031     0.205   0.515965E-01
     0.031     0.213   0.503148E-01
     0.031     0.220   0.490640E-01
     0.031     0.228   0.478435E-01
     0.031     0.236   0.466524E-01
     0.031     0.244   0.454902E-01
     0.031     0.252   0.443560E-01
     0.031     0.260   0.432492E-01
     0.031     0.268   0.421692E-01
     0.031     0.276   0.411153E-01
     0.031     0.283   0.400869E-01
     0.031     0.291   0.390834E-01
     0.031     0.299   0.381042E-01
     0.031     0.307   0.371488E-01
     0.031     0.315   0.362167E-01
     0.031     0.323   0.353073E-01
     0.031     0.331   0.344201E-01
     0.031     0.339   0.335547E-01
     0.031     0.346   0.327107E-01
     0.031     0.354   0.318878E-01
     0.031     0.362   0.310854E-01
     0.031     0.370   0.303035E-01
     0.031     0.378   0.295418E-01
     0.031     0.386   0.288002E-01
     0.031     0.394   0.280787E-01
     0.031     0.402   0.273774E-01
     0.031     0.409   0.266968E-01
     0.031     0.417   0.260375E-01
     0.031     0.425   0.254006E-01
     0.031     0.433   0.247878E-01
     0.031     0.441   0.242015E-01
     0.031     0.449   0.236457E-01
     0.031     0.457   0.231254E-01
     0.031     0.465   0.226485E-01
     0.031     0.472   0.222247E-01
     0.031     0.480   0.218656E-01
     0.031     0.488   0.215794E-01
     0.031     0.496   0.213572E-01
     0.031     0.504   0.211423E-01
     0.031     0.512   0.207902E-01
     0.031     0.520   0.201160E-01
     0.031     0.528   0.193039E-01
     0.031     0.535   0.184979E-01
     0.031     0.543   0.177540E-01
     0.031     0.551   0.170805E-01
     0.031     0.559   0.164684E-01
     0.031     0.567   0.159059E-01
     0.031     0.575   0.153821E-01
     0.031     0.583   0.148890E-01
     0.031     0.591   0.144204E-01
     0.031     0.598   0.139722E-01
     0.031     0.606   0.135410E-01
     0.031     0.614   0.131246E-01
     0.031     0.622   0.127211E-01
     0.031     0.630   0.123294E-01
     0.031     0.638   0.119483E-01
     0.031     0.646   0.115769E-01
     0.031     0.654   0.112146E-01
     0.031     0.661   0.108609E-01
     0.031     0.669   0.105152E-01
     0.031     0.677   0.101770E-01
     0.031     0.685   0.984611E-02
     0.031     0.693   0.952206E-02
     0.031     0.701   0.920456E-02
     0.031     0.709   0.889335E-02
     0.031     0.717   0.858812E-02
     0.031     0.724   0.828868E-02
     0.031     0.732   0.799473E-02
     0.031     0.740   0.770610E-02
     0.031     0.748   0.742253E-02
     0.031     0.756   0.714386E-02
     0.031     0.764   0.686984E-02
     0.031     0.772   0.660032E-02
     0.031     0.780   0.633508E-02
     0.031     0.787   0.607398E-02
     0.031     0.795   0.581679E-02
     0.031     0.803   0.556339E-02
     0.031     0.811   0.531357E-02
     0.031     0.819   0.506719E-02
     0.031     0.827   0.482406E-02
     0.031     0.835   0.458406E-02
     0.031     0.843   0.434699E-02
     0.031     0.850   0.411273E-02
     0.031     0.858   0.388110E-02
     0.031     0.866   0.365198E-02
     0.031     0.874   0.342519E-02
     0.031     0.882   0.320061E-02
     0.031     0.890   0.297807E-02
     0.031     0.898   0.275746E-02
     0.031     0.906   0.253860E-02
     0.031     0.913   0.232138E-02
     0.031     0.921   0.210563E-02
     0.031     0.929   0.189125E-02
     0.031     0.937   0.167807E-02
     0.031     0.945   0.146597E-02
     0.031     0.953   0.125480E-02
     0.031     0.961   0.104445E-02
     0.031     0.969   0.834753E-03
     0.031     0.976   0.625599E-03
     0.031     0.984   0.416843E-03
     0.031     0.992   0.208355E-03
     0.031     1.000    0.00000    
     0.039     0.000   0.123370    
     0.039     0.008   0.120340    
     0.039     0.016   0.117384    
     0.039     0.024   0.114499    
     0.039     0.031   0.111685    
     0.039     0.039   0.108939    
     0.039     0.047   0.106260    
     0.039     0.055   0.103646    
     0.039     0.063   0.101095    
     0.039     0.071   0.986065E-01
     0.039     0.079   0.961782E-01
     0.039     0.087   0.938087E-01
     0.039     0.094   0.914968E-01
     0.039     0.102   0.892409E-01
     0.039     0.110   0.870398E-01
     0.039     0.118   0.848920E-01
     0.039     0.126   0.827962E-01
     0.039     0.134   0.807512E-01
     0.039     0.142   0.787558E-01
     0.039     0.150   0.768087E-01
     0.039     0.157   0.749087E-01
     0.039     0.165   0.730547E-01
     0.039     0.173   0.712456E-01
     0.039     0.181   0.694803E-01
     0.039     0.189   0.677576E-01
     0.039     0.197   0.660766E-01
     0.039     0.205   0.644363E-01
     0.039     0.213   0.628355E-01
     0.039     0.220   0.612735E-01
     0.039     0.228   0.597492E-01
     0.039     0.236   0.582618E-01
     0.039     0.244   0.568103E-01
     0.039     0.252   0.553938E-01
     0.039     0.260   0.540116E-01
     0.039     0.268   0.526628E-01
     0.039     0.276   0.513465E-01
     0.039     0.283   0.500622E-01
     0.039     0.291   0.488089E-01
     0.039     0.299   0.475860E-01
     0.039     0.307   0.463927E-01
     0.039     0.315   0.452285E-01
     0.039     0.323   0.440926E-01
     0.039     0.331   0.429845E-01
     0.039     0.339   0.419035E-01
     0.039     0.346   0.408493E-01
     0.039     0.354   0.398211E-01
     0.039     0.362   0.388188E-01
     0.039     0.370   0.378417E-01
     0.039     0.378   0.368898E-01
     0.039     0.386   0.359626E-01
     0.039     0.394   0.350603E-01
     0.039     0.402   0.341828E-01
     0.039     0.409   0.333305E-01
     0.039     0.417   0.325039E-01
     0.039     0.425   0.317038E-01
     0.039     0.433   0.309317E-01
     0.039     0.441   0.301895E-01
     0.039     0.449   0.294800E-01
     0.039     0.457   0.288067E-01
     0.039     0.465   0.281739E-01
     0.039     0.472   0.275860E-01
     0.039     0.480   0.270457E-01
     0.039     0.488   0.265495E-01
     0.039     0.496   0.260796E-01
     0.039     0.504   0.255935E-01
     0.039     0.512   0.250225E-01
     0.039     0.520   0.243118E-01
     0.039     0.528   0.235154E-01
     0.039     0.535   0.227012E-01
     0.039     0.543   0.219110E-01
     0.039     0.551   0.211616E-01
     0.039     0.559   0.204560E-01
     0.039     0.567   0.197905E-01
     0.039     0.575   0.191601E-01
     0.039     0.583   0.185595E-01
     0.039     0.591   0.179844E-01
     0.039     0.598   0.174314E-01
     0.039     0.606   0.168976E-01
     0.039     0.614   0.163808E-01
     0.039     0.622   0.158793E-01
     0.039     0.630   0.153918E-01
     0.039     0.638   0.149171E-01
     0.039     0.646   0.144542E-01
     0.039     0.654   0.140025E-01
     0.039     0.661   0.135613E-01
     0.039     0.669   0.131300E-01
     0.039     0.677   0.127080E-01
     0.039     0.685   0.122950E-01
     0.039     0.693   0.118905E-01
     0.039     0.701   0.114942E-01
     0.039     0.709   0.111057E-01
     0.039     0.717   0.107246E-01
     0.039     0.724   0.103507E-01
     0.039     0.732   0.998374E-02
     0.039     0.740   0.962333E-02
     0.039     0.748   0.926927E-02
     0.039     0.756   0.892127E-02
     0.039     0.764   0.857913E-02
     0.039     0.772   0.824256E-02
     0.039     0.780   0.791137E-02
     0.039     0.787   0.758529E-02
     0.039     0.795   0.726415E-02
     0.039     0.803   0.694768E-02
     0.039     0.811   0.663573E-02
     0.039     0.819   0.632803E-02
     0.039     0.827   0.602444E-02
     0.039     0.835   0.572470E-02
     0.039     0.843   0.542867E-02
     0.039     0.850   0.513610E-02
     0.039     0.858   0.484686E-02
     0.039     0.866   0.456071E-02
     0.039     0.874   0.427750E-02
     0.039     0.882   0.399703E-02
     0.039     0.890   0.371913E-02
     0.039     0.898   0.344361E-02
     0.039     0.906   0.317030E-02
     0.039     0.913   0.289902E-02
     0.039     0.921   0.262960E-02
     0.039     0.929   0.236186E-02
     0.039     0.937   0.209564E-02
     0.039     0.945   0.183076E-02
     0.039     0.953   0.156705E-02
     0.039     0.961   0.130434E-02
     0.039     0.969   0.104248E-02
     0.039     0.976   0.781272E-03
     0.039     0.984   0.520571E-03
     0.039     0.992   0.260202E-03
     0.039     1.000    0.00000    
     0.047     0.000   0.147877    
     0.047     0.008   0.144246    
     0.047     0.016   0.140702    
     0.047     0.024   0.137245    
     0.047     0.031   0.133872    
     0.047     0.039   0.130580    
     0.047     0.047   0.127369    
     0.047     0.055   0.124235    
     0.047     0.063   0.121178    
     0.047     0.071   0.118195    
     0.047     0.079   0.115284    
     0.047     0.087   0.112444    
     0.047     0.094   0.109673    
     0.047     0.102   0.106969    
     0.047     0.110   0.104330    
     0.047     0.118   0.101756    
     0.047     0.126   0.992438E-01
     0.047     0.134   0.967926E-01
     0.047     0.142   0.944008E-01
     0.047     0.150   0.920669E-01
     0.047     0.157   0.897894E-01
     0.047     0.165   0.875672E-01
     0.047     0.173   0.853986E-01
     0.047     0.181   0.832826E-01
     0.047     0.189   0.812177E-01
     0.047     0.197   0.792028E-01
     0.047     0.205   0.772365E-01
     0.047     0.213   0.753178E-01
     0.047     0.220   0.734455E-01
     0.047     0.228   0.716184E-01
     0.047     0.236   0.698354E-01
     0.047     0.244   0.680955E-01
     0.047     0.252   0.663976E-01
     0.047     0.260   0.647407E-01
     0.047     0.268   0.631239E-01
     0.047     0.276   0.615462E-01
     0.047     0.283   0.600065E-01
     0.047     0.291   0.585042E-01
     0.047     0.299   0.570382E-01
     0.047     0.307   0.556078E-01
     0.047     0.315   0.542121E-01
     0.047     0.323   0.528504E-01
     0.047     0.331   0.515219E-01
     0.047     0.339   0.502259E-01
     0.047     0.346   0.489618E-01
     0.047     0.354   0.477290E-01
     0.047     0.362   0.465269E-01
     0.047     0.370   0.453551E-01
     0.047     0.378   0.442130E-01
     0.047     0.386   0.431005E-01
     0.047     0.394   0.420173E-01
     0.047     0.402   0.409634E-01
     0.047     0.409   0.399388E-01
     0.047     0.417   0.389439E-01
     0.047     0.425   0.379793E-01
     0.047     0.433   0.370460E-01
     0.047     0.441   0.361451E-01
     0.047     0.449   0.352784E-01
     0.047     0.457   0.344476E-01
     0.047     0.465   0.336546E-01
     0.047     0.472   0.329000E-01
     0.047     0.480   0.321821E-01
     0.047     0.488   0.314936E-01