Title="Temperature Data"
Variables="X","Y","T"
 
Zone I=    64, J=    64, F=POINT
     0.000     0.000    0.00000    
     0.000     0.016    0.00000    
     0.000     0.032    0.00000    
     0.000     0.048    0.00000    
     0.000     0.063    0.00000    
     0.000     0.079    0.00000    
     0.000     0.095    0.00000    
     0.000     0.111    0.00000    
     0.000     0.127    0.00000    
     0.000     0.143    0.00000    
     0.000     0.159    0.00000    
     0.000     0.175    0.00000    
     0.000     0.190    0.00000    
     0.000     0.206    0.00000    
     0.000     0.222    0.00000    
     0.000     0.238    0.00000    
     0.000     0.254    0.00000    
     0.000     0.270    0.00000    
     0.000     0.286    0.00000    
     0.000     0.302    0.00000    
     0.000     0.317    0.00000    
     0.000     0.333    0.00000    
     0.000     0.349    0.00000    
     0.000     0.365    0.00000    
     0.000     0.381    0.00000    
     0.000     0.397    0.00000    
     0.000     0.413    0.00000    
     0.000     0.429    0.00000    
     0.000     0.444    0.00000    
     0.000     0.460    0.00000    
     0.000     0.476    0.00000    
     0.000     0.492    0.00000    
     0.000     0.508    0.00000    
     0.000     0.524    0.00000    
     0.000     0.540    0.00000    
     0.000     0.556    0.00000    
     0.000     0.571    0.00000    
     0.000     0.587    0.00000    
     0.000     0.603    0.00000    
     0.000     0.619    0.00000    
     0.000     0.635    0.00000    
     0.000     0.651    0.00000    
     0.000     0.667    0.00000    
     0.000     0.683    0.00000    
     0.000     0.698    0.00000    
     0.000     0.714    0.00000    
     0.000     0.730    0.00000    
     0.000     0.746    0.00000    
     0.000     0.762    0.00000    
     0.000     0.778    0.00000    
     0.000     0.794    0.00000    
     0.000     0.810    0.00000    
     0.000     0.825    0.00000    
     0.000     0.841    0.00000    
     0.000     0.857    0.00000    
     0.000     0.873    0.00000    
     0.000     0.889    0.00000    
     0.000     0.905    0.00000    
     0.000     0.921    0.00000    
     0.000     0.937    0.00000    
     0.000     0.952    0.00000    
     0.000     0.968    0.00000    
     0.000     0.984    0.00000    
     0.000     1.000    0.00000    
     0.016     0.000   0.498459E-01
     0.016     0.016   0.293808E-01
     0.016     0.032   0.141204E-01
     0.016     0.048   0.549216E-02
     0.016     0.063   0.172966E-02
     0.016     0.079   0.442680E-03
     0.016     0.095   0.924407E-04
     0.016     0.111   0.157937E-04
     0.016     0.127   0.220934E-05
     0.016     0.143   0.252556E-06
     0.016     0.159   0.234698E-07
     0.016     0.175   0.175654E-08
     0.016     0.190   0.104304E-09
     0.016     0.206   0.480165E-11
     0.016     0.222   0.165247E-12
     0.016     0.238   0.400163E-14
     0.016     0.254   0.608277E-16
     0.016     0.270   0.436705E-18
     0.016     0.286    0.00000    
     0.016     0.302    0.00000    
     0.016     0.317    0.00000    
     0.016     0.333    0.00000    
     0.016     0.349    0.00000    
     0.016     0.365    0.00000    
     0.016     0.381    0.00000    
     0.016     0.397    0.00000    
     0.016     0.413    0.00000    
     0.016     0.429    0.00000    
     0.016     0.444    0.00000    
     0.016     0.460    0.00000    
     0.016     0.476    0.00000    
     0.016     0.492    0.00000    
     0.016     0.508    0.00000    
     0.016     0.524    0.00000    
     0.016     0.540    0.00000    
     0.016     0.556    0.00000    
     0.016     0.571    0.00000    
     0.016     0.587    0.00000    
     0.016     0.603    0.00000    
     0.016     0.619    0.00000    
     0.016     0.635    0.00000    
     0.016     0.651    0.00000    
     0.016     0.667    0.00000    
     0.016     0.683    0.00000    
     0.016     0.698    0.00000    
     0.016     0.714    0.00000    
     0.016     0.730    0.00000    
     0.016     0.746    0.00000    
     0.016     0.762    0.00000    
     0.016     0.778    0.00000    
     0.016     0.794    0.00000    
     0.016     0.810    0.00000    
     0.016     0.825    0.00000    
     0.016     0.841    0.00000    
     0.016     0.857    0.00000    
     0.016     0.873    0.00000    
     0.016     0.889    0.00000    
     0.016     0.905    0.00000    
     0.016     0.921    0.00000    
     0.016     0.937    0.00000    
     0.016     0.952    0.00000    
     0.016     0.968    0.00000    
     0.016     0.984    0.00000    
     0.016     1.000    0.00000    
     0.032     0.000   0.995678E-01
     0.032     0.016   0.586885E-01
     0.032     0.032   0.282058E-01
     0.032     0.048   0.109707E-01
     0.032     0.063   0.345501E-02
     0.032     0.079   0.884259E-03
     0.032     0.095   0.184652E-03
     0.032     0.111   0.315481E-04
     0.032     0.127   0.441318E-05
     0.032     0.143   0.504483E-06
     0.032     0.159   0.468813E-07
     0.032     0.175   0.350870E-08
     0.032     0.190   0.208349E-09
     0.032     0.206   0.959136E-11
     0.032     0.222   0.330084E-12
     0.032     0.238   0.799332E-14
     0.032     0.254   0.121504E-15
     0.032     0.270   0.872324E-18
     0.032     0.286    0.00000    
     0.032     0.302    0.00000    
     0.032     0.317    0.00000    
     0.032     0.333    0.00000    
     0.032     0.349    0.00000    
     0.032     0.365    0.00000    
     0.032     0.381    0.00000    
     0.032     0.397    0.00000    
     0.032     0.413    0.00000    
     0.032     0.429    0.00000    
     0.032     0.444    0.00000    
     0.032     0.460    0.00000    
     0.032     0.476    0.00000    
     0.032     0.492    0.00000    
     0.032     0.508    0.00000    
     0.032     0.524    0.00000    
     0.032     0.540    0.00000    
     0.032     0.556    0.00000    
     0.032     0.571    0.00000    
     0.032     0.587    0.00000    
     0.032     0.603    0.00000    
     0.032     0.619    0.00000    
     0.032     0.635    0.00000    
     0.032     0.651    0.00000    
     0.032     0.667    0.00000    
     0.032     0.683    0.00000    
     0.032     0.698    0.00000    
     0.032     0.714    0.00000    
     0.032     0.730    0.00000    
     0.032     0.746    0.00000    
     0.032     0.762    0.00000    
     0.032     0.778    0.00000    
     0.032     0.794    0.00000    
     0.032     0.810    0.00000    
     0.032     0.825    0.00000    
     0.032     0.841    0.00000    
     0.032     0.857    0.00000    
     0.032     0.873    0.00000    
     0.032     0.889    0.00000    
     0.032     0.905    0.00000    
     0.032     0.921    0.00000    
     0.032     0.937    0.00000    
     0.032     0.952    0.00000    
     0.032     0.968    0.00000    
     0.032     0.984    0.00000    
     0.032     1.000    0.00000    
     0.048     0.000   0.149042    
     0.048     0.016   0.878503E-01
     0.048     0.032   0.422210E-01
     0.048     0.048   0.164219E-01
     0.048     0.063   0.517178E-02
     0.048     0.079   0.132364E-02
     0.048     0.095   0.276403E-03
     0.048     0.111   0.472241E-04
     0.048     0.127   0.660605E-05
     0.048     0.143   0.755157E-06
     0.048     0.159   0.701762E-07
     0.048     0.175   0.525215E-08
     0.048     0.190   0.311876E-09
     0.048     0.206   0.143572E-10
     0.048     0.222   0.494099E-12
     0.048     0.238   0.119651E-13
     0.048     0.254   0.181879E-15
     0.048     0.270   0.130577E-17
     0.048     0.286    0.00000    
     0.048     0.302    0.00000    
     0.048     0.317    0.00000    
     0.048     0.333    0.00000    
     0.048     0.349    0.00000    
     0.048     0.365    0.00000    
     0.048     0.381    0.00000    
     0.048     0.397    0.00000    
     0.048     0.413    0.00000    
     0.048     0.429    0.00000    
     0.048     0.444    0.00000    
     0.048     0.460    0.00000    
     0.048     0.476    0.00000    
     0.048     0.492    0.00000    
     0.048     0.508    0.00000    
     0.048     0.524    0.00000    
     0.048     0.540    0.00000    
     0.048     0.556    0.00000    
     0.048     0.571    0.00000    
     0.048     0.587    0.00000    
     0.048     0.603    0.00000    
     0.048     0.619    0.00000    
     0.048     0.635    0.00000    
     0.048     0.651    0.00000    
     0.048     0.667    0.00000    
     0.048     0.683    0.00000    
     0.048     0.698    0.00000    
     0.048     0.714    0.00000    
     0.048     0.730    0.00000    
     0.048     0.746    0.00000    
     0.048     0.762    0.00000    
     0.048     0.778    0.00000    
     0.048     0.794    0.00000    
     0.048     0.810    0.00000    
     0.048     0.825    0.00000    
     0.048     0.841    0.00000    
     0.048     0.857    0.00000    
     0.048     0.873    0.00000    
     0.048     0.889    0.00000    
     0.048     0.905    0.00000    
     0.048     0.921    0.00000    
     0.048     0.937    0.00000    
     0.048     0.952    0.00000    
     0.048     0.968    0.00000    
     0.048     0.984    0.00000    
     0.048     1.000    0.00000    
     0.063     0.000   0.198146    
     0.063     0.016   0.116794    
     0.063     0.032   0.561312E-01
     0.063     0.048   0.218323E-01
     0.063     0.063   0.687569E-02
     0.063     0.079   0.175973E-02
     0.063     0.095   0.367468E-03
     0.063     0.111   0.627827E-04
     0.063     0.127   0.878250E-05
     0.063     0.143   0.100395E-05
     0.063     0.159   0.932966E-07
     0.063     0.175   0.698254E-08
     0.063     0.190   0.414628E-09
     0.063     0.206   0.190874E-10
     0.063     0.222   0.656887E-12
     0.063     0.238   0.159072E-13
     0.063     0.254   0.241801E-15
     0.063     0.270   0.173598E-17
     0.063     0.286    0.00000    
     0.063     0.302    0.00000    
     0.063     0.317    0.00000    
     0.063     0.333    0.00000    
     0.063     0.349    0.00000    
     0.063     0.365    0.00000    
     0.063     0.381    0.00000    
     0.063     0.397    0.00000    
     0.063     0.413    0.00000    
     0.063     0.429    0.00000    
     0.063     0.444    0.00000    
     0.063     0.460    0.00000    
     0.063     0.476    0.00000    
     0.063     0.492    0.00000    
     0.063     0.508    0.00000    
     0.063     0.524    0.00000    
     0.063     0.540    0.00000    
     0.063     0.556    0.00000    
     0.063     0.571    0.00000    
     0.063     0.587    0.00000    
     0.063     0.603    0.00000    
     0.063     0.619    0.00000    
     0.063     0.635    0.00000    
     0.063     0.651    0.00000    
     0.063     0.667    0.00000    
     0.063     0.683    0.00000    
     0.063     0.698    0.00000    
     0.063     0.714    0.00000    
     0.063     0.730    0.00000    
     0.063     0.746    0.00000    
     0.063     0.762    0.00000    
     0.063     0.778    0.00000    
     0.063     0.794    0.00000    
     0.063     0.810    0.00000    
     0.063     0.825    0.00000    
     0.063     0.841    0.00000    
     0.063     0.857    0.00000    
     0.063     0.873    0.00000    
     0.063     0.889    0.00000    
     0.063     0.905    0.00000    
     0.063     0.921    0.00000    
     0.063     0.937    0.00000    
     0.063     0.952    0.00000    
     0.063     0.968    0.00000    
     0.063     0.984    0.00000    
     0.063     1.000    0.00000    
     0.079     0.000   0.246757    
     0.079     0.016   0.145447    
     0.079     0.032   0.699019E-01
     0.079     0.048   0.271884E-01
     0.079     0.063   0.856250E-02
     0.079     0.079   0.219145E-02
     0.079     0.095   0.457619E-03
     0.079     0.111   0.781852E-04
     0.079     0.127   0.109371E-04
     0.079     0.143   0.125025E-05
     0.079     0.159   0.116185E-06
     0.079     0.175   0.869556E-08
     0.079     0.190   0.516348E-09
     0.079     0.206   0.237701E-10
     0.079     0.222   0.818041E-12
     0.079     0.238   0.198097E-13
     0.079     0.254   0.301122E-15
     0.079     0.270   0.216187E-17
     0.079     0.286    0.00000    
     0.079     0.302    0.00000    
     0.079     0.317    0.00000    
     0.079     0.333    0.00000    
     0.079     0.349    0.00000    
     0.079     0.365    0.00000    
     0.079     0.381    0.00000    
     0.079     0.397    0.00000    
     0.079     0.413    0.00000    
     0.079     0.429    0.00000    
     0.079     0.444    0.00000    
     0.079     0.460    0.00000    
     0.079     0.476    0.00000    
     0.079     0.492    0.00000    
     0.079     0.508    0.00000    
     0.079     0.524    0.00000    
     0.079     0.540    0.00000    
     0.079     0.556    0.00000    
     0.079     0.571    0.00000    
     0.079     0.587    0.00000    
     0.079     0.603    0.00000    
     0.079     0.619    0.00000    
     0.079     0.635    0.00000    
     0.079     0.651    0.00000    
     0.079     0.667    0.00000    
     0.079     0.683    0.00000    
     0.079     0.698    0.00000    
     0.079     0.714    0.00000    
     0.079     0.730    0.00000    
     0.079     0.746    0.00000    
     0.079     0.762    0.00000    
     0.079     0.778    0.00000    
     0.079     0.794    0.00000    
     0.079     0.810    0.00000    
     0.079     0.825    0.00000    
     0.079     0.841    0.00000    
     0.079     0.857    0.00000    
     0.079     0.873    0.00000    
     0.079     0.889    0.00000    
     0.079     0.905    0.00000    
     0.079     0.921    0.00000    
     0.079     0.937    0.00000    
     0.079     0.952    0.00000    
     0.079     0.968    0.00000    
     0.079     0.984    0.00000    
     0.079     1.000    0.00000    
     0.095     0.000   0.294755    
     0.095     0.016   0.173738    
     0.095     0.032   0.834988E-01
     0.095     0.048   0.324769E-01
     0.095     0.063   0.102280E-01
     0.095     0.079   0.261771E-02
     0.095     0.095   0.546633E-03
     0.095     0.111   0.933934E-04
     0.095     0.127   0.130645E-04
     0.095     0.143   0.149344E-05
     0.095     0.159   0.138785E-06
     0.095     0.175   0.103870E-07
     0.095     0.190   0.616785E-09
     0.095     0.206   0.283937E-10
     0.095     0.222   0.977162E-12
     0.095     0.238   0.236630E-13
     0.095     0.254   0.359695E-15
     0.095     0.270   0.258238E-17
     0.095     0.286    0.00000    
     0.095     0.302    0.00000    
     0.095     0.317    0.00000    
     0.095     0.333    0.00000    
     0.095     0.349    0.00000    
     0.095     0.365    0.00000    
     0.095     0.381    0.00000    
     0.095     0.397    0.00000    
     0.095     0.413    0.00000    
     0.095     0.429    0.00000    
     0.095     0.444    0.00000    
     0.095     0.460    0.00000    
     0.095     0.476    0.00000    
     0.095     0.492    0.00000    
     0.095     0.508    0.00000    
     0.095     0.524    0.00000    
     0.095     0.540    0.00000    
     0.095     0.556    0.00000    
     0.095     0.571    0.00000    
     0.095     0.587    0.00000    
     0.095     0.603    0.00000    
     0.095     0.619    0.00000    
     0.095     0.635    0.00000    
     0.095     0.651    0.00000    
     0.095     0.667    0.00000    
     0.095     0.683    0.00000    
     0.095     0.698    0.00000    
     0.095     0.714    0.00000    
     0.095     0.730    0.00000    
     0.095     0.746    0.00000    
     0.095     0.762    0.00000    
     0.095     0.778    0.00000    
     0.095     0.794    0.00000    
     0.095     0.810    0.00000    
     0.095     0.825    0.00000    
     0.095     0.841    0.00000    
     0.095     0.857    0.00000    
     0.095     0.873    0.00000    
     0.095     0.889    0.00000    
     0.095     0.905    0.00000    
     0.095     0.921    0.00000    
     0.095     0.937    0.00000    
     0.095     0.952    0.00000    
     0.095     0.968    0.00000    
     0.095     0.984    0.00000    
     0.095     1.000    0.00000    
     0.111     0.000   0.342020    
     0.111     0.016   0.201598    
     0.111     0.032   0.968881E-01
     0.111     0.048   0.376847E-01
     0.111     0.063   0.118681E-01
     0.111     0.079   0.303747E-02
     0.111     0.095   0.634287E-03
     0.111     0.111   0.108369E-03
     0.111     0.127   0.151595E-04
     0.111     0.143   0.173292E-05
     0.111     0.159   0.161039E-06
     0.111     0.175   0.120526E-07
     0.111     0.190   0.715689E-09
     0.111     0.206   0.329468E-10
     0.111     0.222   0.113385E-11
     0.111     0.238   0.274574E-13
     0.111     0.254   0.417373E-15
     0.111     0.270   0.299647E-17
     0.111     0.286    0.00000    
     0.111     0.302    0.00000    
     0.111     0.317    0.00000    
     0.111     0.333    0.00000    
     0.111     0.349    0.00000    
     0.111     0.365    0.00000    
     0.111     0.381    0.00000    
     0.111     0.397    0.00000    
     0.111     0.413    0.00000    
     0.111     0.429    0.00000    
     0.111     0.444    0.00000    
     0.111     0.460    0.00000    
     0.111     0.476    0.00000    
     0.111     0.492    0.00000    
     0.111     0.508    0.00000    
     0.111     0.524    0.00000    
     0.111     0.540    0.00000    
     0.111     0.556    0.00000    
     0.111     0.571    0.00000    
     0.111     0.587    0.00000    
     0.111     0.603    0.00000    
     0.111     0.619    0.00000    
     0.111     0.635    0.00000    
     0.111     0.651    0.00000    
     0.111     0.667    0.00000    
     0.111     0.683    0.00000    
     0.111     0.698    0.00000    
     0.111     0.714    0.00000    
     0.111     0.730    0.00000    
     0.111     0.746    0.00000    
     0.111     0.762    0.00000    
     0.111     0.778    0.00000    
     0.111     0.794    0.00000    
     0.111     0.810    0.00000    
     0.111     0.825    0.00000    
     0.111     0.841    0.00000    
     0.111     0.857    0.00000    
     0.111     0.873    0.00000    
     0.111     0.889    0.00000    
     0.111     0.905    0.00000    
     0.111     0.921    0.00000    
     0.111     0.937    0.00000    
     0.111     0.952    0.00000    
     0.111     0.968    0.00000    
     0.111     0.984    0.00000    
     0.111     1.000    0.00000    
     0.127     0.000   0.388435    
     0.127     0.016   0.228956    
     0.127     0.032   0.110037    
     0.127     0.048   0.427988E-01
     0.127     0.063   0.134787E-01
     0.127     0.079   0.344968E-02
     0.127     0.095   0.720364E-03
     0.127     0.111   0.123076E-03
     0.127     0.127   0.172167E-04
     0.127     0.143   0.196809E-05
     0.127     0.159   0.182894E-06
     0.127     0.175   0.136882E-07
     0.127     0.190   0.812813E-09
     0.127     0.206   0.374179E-10
     0.127     0.222   0.128772E-11
     0.127     0.238   0.311836E-13
     0.127     0.254   0.474013E-15
     0.127     0.270   0.340312E-17
     0.127     0.286    0.00000    
     0.127     0.302    0.00000    
     0.127     0.317    0.00000    
     0.127     0.333    0.00000    
     0.127     0.349    0.00000    
     0.127     0.365    0.00000    
     0.127     0.381    0.00000    
     0.127     0.397    0.00000    
     0.127     0.413    0.00000    
     0.127     0.429    0.00000    
     0.127     0.444    0.00000    
     0.127     0.460    0.00000    
     0.127     0.476    0.00000    
     0.127     0.492    0.00000    
     0.127     0.508    0.00000    
     0.127     0.524    0.00000    
     0.127     0.540    0.00000    
     0.127     0.556    0.00000    
     0.127     0.571    0.00000    
     0.127     0.587    0.00000    
     0.127     0.603    0.00000    
     0.127     0.619    0.00000    
     0.127     0.635    0.00000    
     0.127     0.651    0.00000    
     0.127     0.667    0.00000    
     0.127     0.683    0.00000    
     0.127     0.698    0.00000    
     0.127     0.714    0.00000    
     0.127     0.730    0.00000    
     0.127     0.746    0.00000    
     0.127     0.762    0.00000    
     0.127     0.778    0.00000    
     0.127     0.794    0.00000    
     0.127     0.810    0.00000    
     0.127     0.825    0.00000    
     0.127     0.841    0.00000    
     0.127     0.857    0.00000    
     0.127     0.873    0.00000    
     0.127     0.889    0.00000    
     0.127     0.905    0.00000    
     0.127     0.921    0.00000    
     0.127     0.937    0.00000    
     0.127     0.952    0.00000    
     0.127     0.968    0.00000    
     0.127     0.984    0.00000    
     0.127     1.000    0.00000    
     0.143     0.000   0.433884    
     0.143     0.016   0.255745    
     0.143     0.032   0.122911    
     0.143     0.048   0.478065E-01
     0.143     0.063   0.150558E-01
     0.143     0.079   0.385331E-02
     0.143     0.095   0.804651E-03
     0.143     0.111   0.137476E-03
     0.143     0.127   0.192312E-04
     0.143     0.143   0.219837E-05
     0.143     0.159   0.204293E-06
     0.143     0.175   0.152898E-07
     0.143     0.190   0.907917E-09
     0.143     0.206   0.417960E-10
     0.143     0.222   0.143840E-11
     0.143     0.238   0.348322E-13
     0.143     0.254   0.529475E-15
     0.143     0.270   0.380130E-17
     0.143     0.286    0.00000    
     0.143     0.302    0.00000    
     0.143     0.317    0.00000    
     0.143     0.333    0.00000    
     0.143     0.349    0.00000    
     0.143     0.365    0.00000    
     0.143     0.381    0.00000    
     0.143     0.397    0.00000    
     0.143     0.413    0.00000    
     0.143     0.429    0.00000    
     0.143     0.444    0.00000    
     0.143     0.460    0.00000    
     0.143     0.476    0.00000    
     0.143     0.492    0.00000    
     0.143     0.508    0.00000    
     0.143     0.524    0.00000    
     0.143     0.540    0.00000    
     0.143     0.556    0.00000    
     0.143     0.571    0.00000    
     0.143     0.587    0.00000    
     0.143     0.603    0.00000    
     0.143     0.619    0.00000    
     0.143     0.635    0.00000    
     0.143     0.651    0.00000    
     0.143     0.667    0.00000    
     0.143     0.683    0.00000    
     0.143     0.698    0.00000    
     0.143     0.714    0.00000    
     0.143     0.730    0.00000    
     0.143     0.746    0.00000    
     0.143     0.762    0.00000    
     0.143     0.778    0.00000    
     0.143     0.794    0.00000    
     0.143     0.810    0.00000    
     0.143     0.825    0.00000    
     0.143     0.841    0.00000    
     0.143     0.857    0.00000    
     0.143     0.873    0.00000    
     0.143     0.889    0.00000    
     0.143     0.905    0.00000    
     0.143     0.921    0.00000    
     0.143     0.937    0.00000    
     0.143     0.952    0.00000    
     0.143     0.968    0.00000    
     0.143     0.984    0.00000    
     0.143     1.000    0.00000    
     0.159     0.000   0.478254    
     0.159     0.016   0.281898    
     0.159     0.032   0.135481    
     0.159     0.048   0.526954E-01
     0.159     0.063   0.165954E-01
     0.159     0.079   0.424736E-02
     0.159     0.095   0.886937E-03
     0.159     0.111   0.151535E-03
     0.159     0.127   0.211978E-04
     0.159     0.143   0.242318E-05
     0.159     0.159   0.225185E-06
     0.159     0.175   0.168533E-07
     0.159     0.190   0.100076E-08
     0.159     0.206   0.460702E-10
     0.159     0.222   0.158549E-11
     0.159     0.238   0.383943E-13
     0.159     0.254   0.583621E-15
     0.159     0.270   0.419003E-17
     0.159     0.286    0.00000    
     0.159     0.302    0.00000    
     0.159     0.317    0.00000    
     0.159     0.333    0.00000    
     0.159     0.349    0.00000    
     0.159     0.365    0.00000    
     0.159     0.381    0.00000    
     0.159     0.397    0.00000    
     0.159     0.413    0.00000    
     0.159     0.429    0.00000    
     0.159     0.444    0.00000    
     0.159     0.460    0.00000    
     0.159     0.476    0.00000    
     0.159     0.492    0.00000    
     0.159     0.508    0.00000    
     0.159     0.524    0.00000    
     0.159     0.540    0.00000    
     0.159     0.556    0.00000    
     0.159     0.571    0.00000    
     0.159     0.587    0.00000    
     0.159     0.603    0.00000    
     0.159     0.619    0.00000    
     0.159     0.635    0.00000    
     0.159     0.651    0.00000    
     0.159     0.667    0.00000    
     0.159     0.683    0.00000    
     0.159     0.698    0.00000    
     0.159     0.714    0.00000    
     0.159     0.730    0.00000    
     0.159     0.746    0.00000    
     0.159     0.762    0.00000    
     0.159     0.778    0.00000    
     0.159     0.794    0.00000    
     0.159     0.810    0.00000    
     0.159     0.825    0.00000    
     0.159     0.841    0.00000    
     0.159     0.857    0.00000    
     0.159     0.873    0.00000    
     0.159     0.889    0.00000    
     0.159     0.905    0.00000    
     0.159     0.921    0.00000    
     0.159     0.937    0.00000    
     0.159     0.952    0.00000    
     0.159     0.968    0.00000    
     0.159     0.984    0.00000    
     0.159     1.000    0.00000    
     0.175     0.000   0.521435    
     0.175     0.016   0.307351    
     0.175     0.032   0.147713    
     0.175     0.048   0.574532E-01
     0.175     0.063   0.180938E-01
     0.175     0.079   0.463085E-02
     0.175     0.095   0.967018E-03
     0.175     0.111   0.165217E-03
     0.175     0.127   0.231117E-04
     0.175     0.143   0.264197E-05
     0.175     0.159   0.245517E-06
     0.175     0.175   0.183750E-07
     0.175     0.190   0.109112E-08
     0.175     0.206   0.502298E-10
     0.175     0.222   0.172864E-11
     0.175     0.238   0.418609E-13
     0.175     0.254   0.636316E-15
     0.175     0.270   0.456835E-17
     0.175     0.286    0.00000    
     0.175     0.302    0.00000    
     0.175     0.317    0.00000    
     0.175     0.333    0.00000    
     0.175     0.349    0.00000    
     0.175     0.365    0.00000    
     0.175     0.381    0.00000    
     0.175     0.397    0.00000    
     0.175     0.413    0.00000    
     0.175     0.429    0.00000    
     0.175     0.444    0.00000    
     0.175     0.460    0.00000    
     0.175     0.476    0.00000    
     0.175     0.492    0.00000    
     0.175     0.508    0.00000    
     0.175     0.524    0.00000    
     0.175     0.540    0.00000    
     0.175     0.556    0.00000    
     0.175     0.571    0.00000    
     0.175     0.587    0.00000    
     0.175     0.603    0.00000    
     0.175     0.619    0.00000    
     0.175     0.635    0.00000    
     0.175     0.651    0.00000    
     0.175     0.667    0.00000    
     0.175     0.683    0.00000    
     0.175     0.698    0.00000    
     0.175     0.714    0.00000    
     0.175     0.730    0.00000    
     0.175     0.746    0.00000    
     0.175     0.762    0.00000    
     0.175     0.778    0.00000    
     0.175     0.794    0.00000    
     0.175     0.810    0.00000    
     0.175     0.825    0.00000    
     0.175     0.841    0.00000    
     0.175     0.857    0.00000    
     0.175     0.873    0.00000    
     0.175     0.889    0.00000    
     0.175     0.905    0.00000    
     0.175     0.921    0.00000    
     0.175     0.937    0.00000    
     0.175     0.952    0.00000    
     0.175     0.968    0.00000    
     0.175     0.984    0.00000    
     0.175     1.000    0.00000    
     0.190     0.000   0.563320    
     0.190     0.016   0.332039    
     0.190     0.032   0.159578    
     0.190     0.048   0.620682E-01
     0.190     0.063   0.195472E-01
     0.190     0.079   0.500283E-02
     0.190     0.095   0.104469E-02
     0.190     0.111   0.178488E-03
     0.190     0.127   0.249682E-04
     0.190     0.143   0.285419E-05
     0.190     0.159   0.265238E-06
     0.190     0.175   0.198510E-07
     0.190     0.190   0.117877E-08
     0.190     0.206   0.542646E-10
     0.190     0.222   0.186750E-11
     0.190     0.238   0.452234E-13
     0.190     0.254   0.687429E-15
     0.190     0.270   0.493530E-17
     0.190     0.286    0.00000    
     0.190     0.302    0.00000    
     0.190     0.317    0.00000    
     0.190     0.333    0.00000    
     0.190     0.349    0.00000    
     0.190     0.365    0.00000    
     0.190     0.381    0.00000    
     0.190     0.397    0.00000    
     0.190     0.413    0.00000    
     0.190     0.429    0.00000    
     0.190     0.444    0.00000    
     0.190     0.460    0.00000    
     0.190     0.476    0.00000    
     0.190     0.492    0.00000    
     0.190     0.508    0.00000    
     0.190     0.524    0.00000    
     0.190     0.540    0.00000    
     0.190     0.556    0.00000    
     0.190     0.571    0.00000    
     0.190     0.587    0.00000    
     0.190     0.603    0.00000    
     0.190     0.619    0.00000    
     0.190     0.635    0.00000    
     0.190     0.651    0.00000    
     0.190     0.667    0.00000    
     0.190     0.683    0.00000    
     0.190     0.698    0.00000    
     0.190     0.714    0.00000    
     0.190     0.730    0.00000    
     0.190     0.746    0.00000    
     0.190     0.762    0.00000    
     0.190     0.778    0.00000    
     0.190     0.794    0.00000    
     0.190     0.810    0.00000    
     0.190     0.825    0.00000    
     0.190     0.841    0.00000    
     0.190     0.857    0.00000    
     0.190     0.873    0.00000    
     0.190     0.889    0.00000    
     0.190     0.905    0.00000    
     0.190     0.921    0.00000    
     0.190     0.937    0.00000    
     0.190     0.952    0.00000    
     0.190     0.968    0.00000    
     0.190     0.984    0.00000    