Title="Temperature Data"
Variables="X","Y","T"
 
Zone I=    64, J=    64, F=POINT
     0.000     0.000    0.00000    
     0.000     0.016    0.00000    
     0.000     0.032    0.00000    
     0.000     0.048    0.00000    
     0.000     0.063    0.00000    
     0.000     0.079    0.00000    
     0.000     0.095    0.00000    
     0.000     0.111    0.00000    
     0.000     0.127    0.00000    
     0.000     0.143    0.00000    
     0.000     0.159    0.00000    
     0.000     0.175    0.00000    
     0.000     0.190    0.00000    
     0.000     0.206    0.00000    
     0.000     0.222    0.00000    
     0.000     0.238    0.00000    
     0.000     0.254    0.00000    
     0.000     0.270    0.00000    
     0.000     0.286    0.00000    
     0.000     0.302    0.00000    
     0.000     0.317    0.00000    
     0.000     0.333    0.00000    
     0.000     0.349    0.00000    
     0.000     0.365    0.00000    
     0.000     0.381    0.00000    
     0.000     0.397    0.00000    
     0.000     0.413    0.00000    
     0.000     0.429    0.00000    
     0.000     0.444    0.00000    
     0.000     0.460    0.00000    
     0.000     0.476    0.00000    
     0.000     0.492    0.00000    
     0.000     0.508    0.00000    
     0.000     0.524    0.00000    
     0.000     0.540    0.00000    
     0.000     0.556    0.00000    
     0.000     0.571    0.00000    
     0.000     0.587    0.00000    
     0.000     0.603    0.00000    
     0.000     0.619    0.00000    
     0.000     0.635    0.00000    
     0.000     0.651    0.00000    
     0.000     0.667    0.00000    
     0.000     0.683    0.00000    
     0.000     0.698    0.00000    
     0.000     0.714    0.00000    
     0.000     0.730    0.00000    
     0.000     0.746    0.00000    
     0.000     0.762    0.00000    
     0.000     0.778    0.00000    
     0.000     0.794    0.00000    
     0.000     0.810    0.00000    
     0.000     0.825    0.00000    
     0.000     0.841    0.00000    
     0.000     0.857    0.00000    
     0.000     0.873    0.00000    
     0.000     0.889    0.00000    
     0.000     0.905    0.00000    
     0.000     0.921    0.00000    
     0.000     0.937    0.00000    
     0.000     0.952    0.00000    
     0.000     0.968    0.00000    
     0.000     0.984    0.00000    
     0.000     1.000    0.00000    
     0.016     0.000   0.498459E-01
     0.016     0.016   0.346951E-01
     0.016     0.032   0.217318E-01
     0.016     0.048   0.121650E-01
     0.016     0.063   0.606209E-02
     0.016     0.079   0.268486E-02
     0.016     0.095   0.105678E-02
     0.016     0.111   0.370003E-03
     0.016     0.127   0.115404E-03
     0.016     0.143   0.321182E-04
     0.016     0.159   0.798951E-05
     0.016     0.175   0.177904E-05
     0.016     0.190   0.355056E-06
     0.016     0.206   0.635720E-07
     0.016     0.222   0.102176E-07
     0.016     0.238   0.147443E-08
     0.016     0.254   0.190975E-09
     0.016     0.270   0.221863E-10
     0.016     0.286   0.230883E-11
     0.016     0.302   0.214826E-12
     0.016     0.317   0.178263E-13
     0.016     0.333   0.131480E-14
     0.016     0.349   0.858283E-16
     0.016     0.365   0.493193E-17
     0.016     0.381   0.247767E-18
     0.016     0.397   0.107879E-19
     0.016     0.413   0.402584E-21
     0.016     0.429   0.126905E-22
     0.016     0.444   0.331393E-24
     0.016     0.460   0.697705E-26
     0.016     0.476   0.113808E-27
     0.016     0.492   0.134966E-29
     0.016     0.508   0.103530E-31
     0.016     0.524   0.385590E-34
     0.016     0.540    0.00000    
     0.016     0.556    0.00000    
     0.016     0.571    0.00000    
     0.016     0.587    0.00000    
     0.016     0.603    0.00000    
     0.016     0.619    0.00000    
     0.016     0.635    0.00000    
     0.016     0.651    0.00000    
     0.016     0.667    0.00000    
     0.016     0.683    0.00000    
     0.016     0.698    0.00000    
     0.016     0.714    0.00000    
     0.016     0.730    0.00000    
     0.016     0.746    0.00000    
     0.016     0.762    0.00000    
     0.016     0.778    0.00000    
     0.016     0.794    0.00000    
     0.016     0.810    0.00000    
     0.016     0.825    0.00000    
     0.016     0.841    0.00000    
     0.016     0.857    0.00000    
     0.016     0.873    0.00000    
     0.016     0.889    0.00000    
     0.016     0.905    0.00000    
     0.016     0.921    0.00000    
     0.016     0.937    0.00000    
     0.016     0.952    0.00000    
     0.016     0.968    0.00000    
     0.016     0.984    0.00000    
     0.016     1.000    0.00000    
     0.032     0.000   0.995678E-01
     0.032     0.016   0.693039E-01
     0.032     0.032   0.434096E-01
     0.032     0.048   0.242998E-01
     0.032     0.063   0.121091E-01
     0.032     0.079   0.536304E-02
     0.032     0.095   0.211092E-02
     0.032     0.111   0.739086E-03
     0.032     0.127   0.230521E-03
     0.032     0.143   0.641565E-04
     0.032     0.159   0.159592E-04
     0.032     0.175   0.355365E-05
     0.032     0.190   0.709229E-06
     0.032     0.206   0.126986E-06
     0.032     0.222   0.204098E-07
     0.032     0.238   0.294519E-08
     0.032     0.254   0.381475E-09
     0.032     0.270   0.443174E-10
     0.032     0.286   0.461193E-11
     0.032     0.302   0.429118E-12
     0.032     0.317   0.356082E-13
     0.032     0.333   0.262634E-14
     0.032     0.349   0.171443E-15
     0.032     0.365   0.985160E-17
     0.032     0.381   0.494919E-18
     0.032     0.397   0.215490E-19
     0.032     0.413   0.804167E-21
     0.032     0.429   0.253495E-22
     0.032     0.444   0.661962E-24
     0.032     0.460   0.139368E-25
     0.032     0.476   0.227333E-27
     0.032     0.492   0.269597E-29
     0.032     0.508   0.206803E-31
     0.032     0.524   0.770221E-34
     0.032     0.540    0.00000    
     0.032     0.556    0.00000    
     0.032     0.571    0.00000    
     0.032     0.587    0.00000    
     0.032     0.603    0.00000    
     0.032     0.619    0.00000    
     0.032     0.635    0.00000    
     0.032     0.651    0.00000    
     0.032     0.667    0.00000    
     0.032     0.683    0.00000    
     0.032     0.698    0.00000    
     0.032     0.714    0.00000    
     0.032     0.730    0.00000    
     0.032     0.746    0.00000    
     0.032     0.762    0.00000    
     0.032     0.778    0.00000    
     0.032     0.794    0.00000    
     0.032     0.810    0.00000    
     0.032     0.825    0.00000    
     0.032     0.841    0.00000    
     0.032     0.857    0.00000    
     0.032     0.873    0.00000    
     0.032     0.889    0.00000    
     0.032     0.905    0.00000    
     0.032     0.921    0.00000    
     0.032     0.937    0.00000    
     0.032     0.952    0.00000    
     0.032     0.968    0.00000    
     0.032     0.984    0.00000    
     0.032     1.000    0.00000    
     0.048     0.000   0.149042    
     0.048     0.016   0.103740    
     0.048     0.032   0.649794E-01
     0.048     0.048   0.363741E-01
     0.048     0.063   0.181260E-01
     0.048     0.079   0.802789E-02
     0.048     0.095   0.315982E-02
     0.048     0.111   0.110633E-02
     0.048     0.127   0.345064E-03
     0.048     0.143   0.960353E-04
     0.048     0.159   0.238891E-04
     0.048     0.175   0.531944E-05
     0.048     0.190   0.106164E-05
     0.048     0.206   0.190084E-06
     0.048     0.222   0.305513E-07
     0.048     0.238   0.440863E-08
     0.048     0.254   0.571027E-09
     0.048     0.270   0.663383E-10
     0.048     0.286   0.690355E-11
     0.048     0.302   0.642344E-12
     0.048     0.317   0.533016E-13
     0.048     0.333   0.393134E-14
     0.048     0.349   0.256632E-15
     0.048     0.365   0.147468E-16
     0.048     0.381   0.740840E-18
     0.048     0.397   0.322566E-19
     0.048     0.413   0.120375E-20
     0.048     0.429   0.379455E-22
     0.048     0.444   0.990885E-24
     0.048     0.460   0.208618E-25
     0.048     0.476   0.340292E-27
     0.048     0.492   0.403557E-29
     0.048     0.508   0.309561E-31
     0.048     0.524   0.115294E-33
     0.048     0.540    0.00000    
     0.048     0.556    0.00000    
     0.048     0.571    0.00000    
     0.048     0.587    0.00000    
     0.048     0.603    0.00000    
     0.048     0.619    0.00000    
     0.048     0.635    0.00000    
     0.048     0.651    0.00000    
     0.048     0.667    0.00000    
     0.048     0.683    0.00000    
     0.048     0.698    0.00000    
     0.048     0.714    0.00000    
     0.048     0.730    0.00000    
     0.048     0.746    0.00000    
     0.048     0.762    0.00000    
     0.048     0.778    0.00000    
     0.048     0.794    0.00000    
     0.048     0.810    0.00000    
     0.048     0.825    0.00000    
     0.048     0.841    0.00000    
     0.048     0.857    0.00000    
     0.048     0.873    0.00000    
     0.048     0.889    0.00000    
     0.048     0.905    0.00000    
     0.048     0.921    0.00000    
     0.048     0.937    0.00000    
     0.048     0.952    0.00000    
     0.048     0.968    0.00000    
     0.048     0.984    0.00000    
     0.048     1.000    0.00000    
     0.063     0.000   0.198146    
     0.063     0.016   0.137919    
     0.063     0.032   0.863877E-01
     0.063     0.048   0.483580E-01
     0.063     0.063   0.240979E-01
     0.063     0.079   0.106728E-01
     0.063     0.095   0.420087E-02
     0.063     0.111   0.147083E-02
     0.063     0.127   0.458750E-03
     0.063     0.143   0.127675E-03
     0.063     0.159   0.317597E-04
     0.063     0.175   0.707199E-05
     0.063     0.190   0.141141E-05
     0.063     0.206   0.252710E-06
     0.063     0.222   0.406168E-07
     0.063     0.238   0.586111E-08
     0.063     0.254   0.759159E-09
     0.063     0.270   0.881943E-10
     0.063     0.286   0.917802E-11
     0.063     0.302   0.853972E-12
     0.063     0.317   0.708625E-13
     0.063     0.333   0.522657E-14
     0.063     0.349   0.341183E-15
     0.063     0.365   0.196053E-16
     0.063     0.381   0.984919E-18
     0.063     0.397   0.428839E-19
     0.063     0.413   0.160034E-20
     0.063     0.429   0.504471E-22
     0.063     0.444   0.131734E-23
     0.063     0.460   0.277350E-25
     0.063     0.476   0.452406E-27
     0.063     0.492   0.536514E-29
     0.063     0.508   0.411550E-31
     0.063     0.524   0.153279E-33
     0.063     0.540    0.00000    
     0.063     0.556    0.00000    
     0.063     0.571    0.00000    
     0.063     0.587    0.00000    
     0.063     0.603    0.00000    
     0.063     0.619    0.00000    
     0.063     0.635    0.00000    
     0.063     0.651    0.00000    
     0.063     0.667    0.00000    
     0.063     0.683    0.00000    
     0.063     0.698    0.00000    
     0.063     0.714    0.00000    
     0.063     0.730    0.00000    
     0.063     0.746    0.00000    
     0.063     0.762    0.00000    
     0.063     0.778    0.00000    
     0.063     0.794    0.00000    
     0.063     0.810    0.00000    
     0.063     0.825    0.00000    
     0.063     0.841    0.00000    
     0.063     0.857    0.00000    
     0.063     0.873    0.00000    
     0.063     0.889    0.00000    
     0.063     0.905    0.00000    
     0.063     0.921    0.00000    
     0.063     0.937    0.00000    
     0.063     0.952    0.00000    
     0.063     0.968    0.00000    
     0.063     0.984    0.00000    
     0.063     1.000    0.00000    
     0.079     0.000   0.246757    
     0.079     0.016   0.171755    
     0.079     0.032   0.107581    
     0.079     0.048   0.602217E-01
     0.079     0.063   0.300098E-01
     0.079     0.079   0.132911E-01
     0.079     0.095   0.523147E-02
     0.079     0.111   0.183167E-02
     0.079     0.127   0.571296E-03
     0.079     0.143   0.158998E-03
     0.079     0.159   0.395513E-04
     0.079     0.175   0.880696E-05
     0.079     0.190   0.175767E-05
     0.079     0.206   0.314707E-06
     0.079     0.222   0.505813E-07
     0.079     0.238   0.729902E-08
     0.079     0.254   0.945404E-09
     0.079     0.270   0.109831E-09
     0.079     0.286   0.114297E-10
     0.079     0.302   0.106348E-11
     0.079     0.317   0.882472E-13
     0.079     0.333   0.650881E-14
     0.079     0.349   0.424885E-15
     0.079     0.365   0.244151E-16
     0.079     0.381   0.122655E-17
     0.079     0.397   0.534046E-19
     0.079     0.413   0.199295E-20
     0.079     0.429   0.628233E-22
     0.079     0.444   0.164053E-23
     0.079     0.460   0.345392E-25
     0.079     0.476   0.563394E-27
     0.079     0.492   0.668137E-29
     0.079     0.508   0.512516E-31
     0.079     0.524   0.190883E-33
     0.079     0.540    0.00000    
     0.079     0.556    0.00000    
     0.079     0.571    0.00000    
     0.079     0.587    0.00000    
     0.079     0.603    0.00000    
     0.079     0.619    0.00000    
     0.079     0.635    0.00000    
     0.079     0.651    0.00000    
     0.079     0.667    0.00000    
     0.079     0.683    0.00000    
     0.079     0.698    0.00000    
     0.079     0.714    0.00000    
     0.079     0.730    0.00000    
     0.079     0.746    0.00000    
     0.079     0.762    0.00000    
     0.079     0.778    0.00000    
     0.079     0.794    0.00000    
     0.079     0.810    0.00000    
     0.079     0.825    0.00000    
     0.079     0.841    0.00000    
     0.079     0.857    0.00000    
     0.079     0.873    0.00000    
     0.079     0.889    0.00000    
     0.079     0.905    0.00000    
     0.079     0.921    0.00000    
     0.079     0.937    0.00000    
     0.079     0.952    0.00000    
     0.079     0.968    0.00000    
     0.079     0.984    0.00000    
     0.079     1.000    0.00000    
     0.095     0.000   0.294755    
     0.095     0.016   0.205164    
     0.095     0.032   0.128507    
     0.095     0.048   0.719356E-01
     0.095     0.063   0.358472E-01
     0.095     0.079   0.158765E-01
     0.095     0.095   0.624906E-02
     0.095     0.111   0.218795E-02
     0.095     0.127   0.682421E-03
     0.095     0.143   0.189925E-03
     0.095     0.159   0.472446E-04
     0.095     0.175   0.105200E-04
     0.095     0.190   0.209956E-05
     0.095     0.206   0.375922E-06
     0.095     0.222   0.604200E-07
     0.095     0.238   0.871878E-08
     0.095     0.254   0.112930E-08
     0.095     0.270   0.131195E-09
     0.095     0.286   0.136529E-10
     0.095     0.302   0.127034E-11
     0.095     0.317   0.105413E-12
     0.095     0.333   0.777486E-14
     0.095     0.349   0.507531E-15
     0.095     0.365   0.291641E-16
     0.095     0.381   0.146513E-17
     0.095     0.397   0.637926E-19
     0.095     0.413   0.238061E-20
     0.095     0.429   0.750434E-22
     0.095     0.444   0.195964E-23
     0.095     0.460   0.412576E-25
     0.095     0.476   0.672983E-27
     0.095     0.492   0.798099E-29
     0.095     0.508   0.612207E-31
     0.095     0.524   0.228012E-33
     0.095     0.540    0.00000    
     0.095     0.556    0.00000    
     0.095     0.571    0.00000    
     0.095     0.587    0.00000    
     0.095     0.603    0.00000    
     0.095     0.619    0.00000    
     0.095     0.635    0.00000    
     0.095     0.651    0.00000    
     0.095     0.667    0.00000    
     0.095     0.683    0.00000    
     0.095     0.698    0.00000    
     0.095     0.714    0.00000    
     0.095     0.730    0.00000    
     0.095     0.746    0.00000    
     0.095     0.762    0.00000    
     0.095     0.778    0.00000    
     0.095     0.794    0.00000    
     0.095     0.810    0.00000    
     0.095     0.825    0.00000    
     0.095     0.841    0.00000    
     0.095     0.857    0.00000    
     0.095     0.873    0.00000    
     0.095     0.889    0.00000    
     0.095     0.905    0.00000    
     0.095     0.921    0.00000    
     0.095     0.937    0.00000    
     0.095     0.952    0.00000    
     0.095     0.968    0.00000    
     0.095     0.984    0.00000    
     0.095     1.000    0.00000    
     0.111     0.000   0.342020    
     0.111     0.016   0.238062    
     0.111     0.032   0.149114    
     0.111     0.048   0.834708E-01
     0.111     0.063   0.415954E-01
     0.111     0.079   0.184223E-01
     0.111     0.095   0.725112E-02
     0.111     0.111   0.253880E-02
     0.111     0.127   0.791849E-03
     0.111     0.143   0.220381E-03
     0.111     0.159   0.548204E-04
     0.111     0.175   0.122070E-04
     0.111     0.190   0.243623E-05
     0.111     0.206   0.436203E-06
     0.111     0.222   0.701086E-07
     0.111     0.238   0.101169E-07
     0.111     0.254   0.131038E-08
     0.111     0.270   0.152232E-09
     0.111     0.286   0.158422E-10
     0.111     0.302   0.147404E-11
     0.111     0.317   0.122316E-12
     0.111     0.333   0.902159E-14
     0.111     0.349   0.588916E-15
     0.111     0.365   0.338407E-16
     0.111     0.381   0.170007E-17
     0.111     0.397   0.740219E-19
     0.111     0.413   0.276235E-20
     0.111     0.429   0.870768E-22
     0.111     0.444   0.227387E-23
     0.111     0.460   0.478734E-25
     0.111     0.476   0.780898E-27
     0.111     0.492   0.926077E-29
     0.111     0.508   0.710377E-31
     0.111     0.524   0.264574E-33
     0.111     0.540    0.00000    
     0.111     0.556    0.00000    
     0.111     0.571    0.00000    
     0.111     0.587    0.00000    
     0.111     0.603    0.00000    
     0.111     0.619    0.00000    
     0.111     0.635    0.00000    
     0.111     0.651    0.00000    
     0.111     0.667    0.00000    
     0.111     0.683    0.00000    
     0.111     0.698    0.00000    
     0.111     0.714    0.00000    
     0.111     0.730    0.00000    
     0.111     0.746    0.00000    
     0.111     0.762    0.00000    
     0.111     0.778    0.00000    
     0.111     0.794    0.00000    
     0.111     0.810    0.00000    
     0.111     0.825    0.00000    
     0.111     0.841    0.00000    
     0.111     0.857    0.00000    
     0.111     0.873    0.00000    
     0.111     0.889    0.00000    
     0.111     0.905    0.00000    
     0.111     0.921    0.00000    
     0.111     0.937    0.00000    
     0.111     0.952    0.00000    
     0.111     0.968    0.00000    
     0.111     0.984    0.00000    
     0.111     1.000    0.00000    
     0.127     0.000   0.388435    
     0.127     0.016   0.270369    
     0.127     0.032   0.169350    
     0.127     0.048   0.947984E-01
     0.127     0.063   0.472402E-01
     0.127     0.079   0.209223E-01
     0.127     0.095   0.823515E-02
     0.127     0.111   0.288333E-02
     0.127     0.127   0.899309E-03
     0.127     0.143   0.250288E-03
     0.127     0.159   0.622600E-04
     0.127     0.175   0.138635E-04
     0.127     0.190   0.276685E-05
     0.127     0.206   0.495399E-06
     0.127     0.222   0.796228E-07
     0.127     0.238   0.114898E-07
     0.127     0.254   0.148821E-08
     0.127     0.270   0.172891E-09
     0.127     0.286   0.179921E-10
     0.127     0.302   0.167408E-11
     0.127     0.317   0.138915E-12
     0.127     0.333   0.102459E-13
     0.127     0.349   0.668836E-15
     0.127     0.365   0.384331E-16
     0.127     0.381   0.193078E-17
     0.127     0.397   0.840672E-19
     0.127     0.413   0.313722E-20
     0.127     0.429   0.988938E-22
     0.127     0.444   0.258245E-23
     0.127     0.460   0.543702E-25
     0.127     0.476   0.886871E-27
     0.127     0.492   0.105175E-28
     0.127     0.508   0.806780E-31
     0.127     0.524   0.300479E-33
     0.127     0.540    0.00000    
     0.127     0.556    0.00000    
     0.127     0.571    0.00000    
     0.127     0.587    0.00000    
     0.127     0.603    0.00000    
     0.127     0.619    0.00000    
     0.127     0.635    0.00000    
     0.127     0.651    0.00000    
     0.127     0.667    0.00000    
     0.127     0.683    0.00000    
     0.127     0.698    0.00000    
     0.127     0.714    0.00000    
     0.127     0.730    0.00000    
     0.127     0.746    0.00000    
     0.127     0.762    0.00000    
     0.127     0.778    0.00000    
     0.127     0.794    0.00000    
     0.127     0.810    0.00000    
     0.127     0.825    0.00000    
     0.127     0.841    0.00000    
     0.127     0.857    0.00000    
     0.127     0.873    0.00000    
     0.127     0.889    0.00000    
     0.127     0.905    0.00000    
     0.127     0.921    0.00000    
     0.127     0.937    0.00000    
     0.127     0.952    0.00000    
     0.127     0.968    0.00000    
     0.127     0.984    0.00000    
     0.127     1.000    0.00000    
     0.143     0.000   0.433884    
     0.143     0.016   0.302004    
     0.143     0.032   0.189165    
     0.143     0.048   0.105890    
     0.143     0.063   0.527675E-01
     0.143     0.079   0.233704E-01
     0.143     0.095   0.919871E-02
     0.143     0.111   0.322069E-02
     0.143     0.127   0.100453E-02
     0.143     0.143   0.279573E-03
     0.143     0.159   0.695447E-04
     0.143     0.175   0.154856E-04
     0.143     0.190   0.309058E-05
     0.143     0.206   0.553363E-06
     0.143     0.222   0.889391E-07
     0.143     0.238   0.128342E-07
     0.143     0.254   0.166234E-08
     0.143     0.270   0.193121E-09
     0.143     0.286   0.200973E-10
     0.143     0.302   0.186996E-11
     0.143     0.317   0.155169E-12
     0.143     0.333   0.114447E-13
     0.143     0.349   0.747093E-15
     0.143     0.365   0.429300E-16
     0.143     0.381   0.215669E-17
     0.143     0.397   0.939036E-19
     0.143     0.413   0.350429E-20
     0.143     0.429   0.110465E-21
     0.143     0.444   0.288461E-23
     0.143     0.460   0.607318E-25
     0.143     0.476   0.990640E-27
     0.143     0.492   0.117481E-28
     0.143     0.508   0.901178E-31
     0.143     0.524   0.335637E-33
     0.143     0.540    0.00000    
     0.143     0.556    0.00000    
     0.143     0.571    0.00000    
     0.143     0.587    0.00000    
     0.143     0.603    0.00000    
     0.143     0.619    0.00000    
     0.143     0.635    0.00000    
     0.143     0.651    0.00000    
     0.143     0.667    0.00000    
     0.143     0.683    0.00000    
     0.143     0.698    0.00000    
     0.143     0.714    0.00000    
     0.143     0.730    0.00000    
     0.143     0.746    0.00000    
     0.143     0.762    0.00000    
     0.143     0.778    0.00000    
     0.143     0.794    0.00000    
     0.143     0.810    0.00000    
     0.143     0.825    0.00000    
     0.143     0.841    0.00000    
     0.143     0.857    0.00000    
     0.143     0.873    0.00000    
     0.143     0.889    0.00000    
     0.143     0.905    0.00000    
     0.143     0.921    0.00000    
     0.143     0.937    0.00000    
     0.143     0.952    0.00000    
     0.143     0.968    0.00000    
     0.143     0.984    0.00000    
     0.143     1.000    0.00000    
     0.159     0.000   0.478254    
     0.159     0.016   0.332887    
     0.159     0.032   0.208509    
     0.159     0.048   0.116719    
     0.159     0.063   0.581637E-01
     0.159     0.079   0.257603E-01
     0.159     0.095   0.101394E-01
     0.159     0.111   0.355005E-02
     0.159     0.127   0.110726E-02
     0.159     0.143   0.308163E-03
     0.159     0.159   0.766566E-04
     0.159     0.175   0.170693E-04
     0.159     0.190   0.340664E-05
     0.159     0.206   0.609952E-06
     0.159     0.222   0.980343E-07
     0.159     0.238   0.141466E-07
     0.159     0.254   0.183234E-08
     0.159     0.270   0.212870E-09
     0.159     0.286   0.221525E-10
     0.159     0.302   0.206118E-11
     0.159     0.317   0.171037E-12
     0.159     0.333   0.126151E-13
     0.159     0.349   0.823493E-15
     0.159     0.365   0.473201E-16
     0.159     0.381   0.237724E-17
     0.159     0.397   0.103506E-18
     0.159     0.413   0.386265E-20
     0.159     0.429   0.121761E-21
     0.159     0.444   0.317960E-23
     0.159     0.460   0.669424E-25
     0.159     0.476   0.109195E-26
     0.159     0.492   0.129495E-28
     0.159     0.508   0.993335E-31
     0.159     0.524   0.369960E-33
     0.159     0.540    0.00000    
     0.159     0.556    0.00000    
     0.159     0.571    0.00000    
     0.159     0.587    0.00000    
     0.159     0.603    0.00000    
     0.159     0.619    0.00000    
     0.159     0.635    0.00000    
     0.159     0.651    0.00000    
     0.159     0.667    0.00000    
     0.159     0.683    0.00000    
     0.159     0.698    0.00000    
     0.159     0.714    0.00000    
     0.159     0.730    0.00000    
     0.159     0.746    0.00000    
     0.159     0.762    0.00000    
     0.159     0.778    0.00000    
     0.159     0.794    0.00000    
     0.159     0.810    0.00000    
     0.159     0.825    0.00000    
     0.159     0.841    0.00000    
     0.159     0.857    0.00000    
     0.159     0.873    0.00000    
     0.159     0.889    0.00000    
     0.159     0.905    0.00000    
     0.159     0.921    0.00000    
     0.159     0.937    0.00000    
     0.159     0.952    0.00000    
     0.159     0.968    0.00000    
     0.159     0.984    0.00000    
     0.159     1.000    0.00000    
     0.175     0.000   0.521435    
     0.175     0.016   0.362944    
     0.175     0.032   0.227335    
     0.175     0.048   0.127257    
     0.175     0.063   0.634152E-01
     0.175     0.079   0.280862E-01
     0.175     0.095   0.110549E-01
     0.175     0.111   0.387058E-02
     0.175     0.127   0.120723E-02
     0.175     0.143   0.335987E-03
     0.175     0.159   0.835778E-04
     0.175     0.175   0.186104E-04
     0.175     0.190   0.371422E-05
     0.175     0.206   0.665024E-06
     0.175     0.222   0.106886E-06
     0.175     0.238   0.154239E-07
     0.175     0.254   0.199778E-08
     0.175     0.270   0.232089E-09
     0.175     0.286   0.241526E-10
     0.175     0.302   0.224729E-11
     0.175     0.317   0.186480E-12
     0.175     0.333   0.137541E-13
     0.175     0.349   0.897846E-15
     0.175     0.365   0.515926E-16
     0.175     0.381   0.259188E-17
     0.175     0.397   0.112852E-18
     0.175     0.413   0.421141E-20
     0.175     0.429   0.132755E-21
     0.175     0.444   0.346668E-23
     0.175     0.460   0.729865E-25
     0.175     0.476   0.119054E-26
     0.175     0.492   0.141187E-28
     0.175     0.508   0.108302E-30
     0.175     0.524   0.403363E-33
     0.175     0.540    0.00000    
     0.175     0.556    0.00000    
     0.175     0.571    0.00000    
     0.175     0.587    0.00000    
     0.175     0.603    0.00000    
     0.175     0.619    0.00000    
     0.175     0.635    0.00000    
     0.175     0.651    0.00000    
     0.175     0.667    0.00000    
     0.175     0.683    0.00000    
     0.175     0.698    0.00000    
     0.175     0.714    0.00000    
     0.175     0.730    0.00000    
     0.175     0.746    0.00000    
     0.175     0.762    0.00000    
     0.175     0.778    0.00000    
     0.175     0.794    0.00000    
     0.175     0.810    0.00000    
     0.175     0.825    0.00000    
     0.175     0.841    0.00000    
     0.175     0.857    0.00000    
     0.175     0.873    0.00000    
     0.175     0.889    0.00000    
     0.175     0.905    0.00000    
     0.175     0.921    0.00000    
     0.175     0.937    0.00000    
     0.175     0.952    0.00000    
     0.175     0.968    0.00000    
     0.175     0.984    0.00000    
     0.175     1.000    0.00000    
     0.190     0.000   0.563320    
     0.190     0.016   0.392097    
     0.190     0.032   0.245596    
     0.190     0.048   0.137479    
     0.190     0.063   0.685091E-01
     0.190     0.079   0.303422E-01
     0.190     0.095   0.119429E-01
     0.190     0.111   0.418149E-02
     0.190     0.127   0.130421E-02
     0.190     0.143   0.362975E-03
     0.190     0.159   0.902913E-04
     0.190     0.175   0.201053E-04
     0.190     0.190   0.401257E-05
     0.190     0.206   0.718443E-06
     0.190     0.222   0.115471E-06
     0.190     0.238   0.166629E-07
     0.190     0.254   0.215825E-08
     0.190     0.270   0.250732E-09
     0.190     0.286   0.260927E-10
     0.190     0.302   0.242780E-11
     0.190     0.317   0.201459E-12
     0.190     0.333   0.148589E-13
     0.190     0.349   0.969966E-15
     0.190     0.365   0.557369E-16
     0.190     0.381   0.280008E-17
     0.190     0.397   0.121917E-18
     0.190     0.413   0.454970E-20
     0.190     0.429   0.143419E-21
     0.190     0.444   0.374515E-23
     0.190     0.460   0.788493E-25
     0.190     0.476   0.128617E-26
     0.190     0.492   0.152528E-28
     0.190     0.508   0.117002E-30
     0.190     0.524   0.435764E-33
     0.190     0.540    0.00000    
     0.190     0.556    0.00000    
     0.190     0.571    0.00000    
     0.190     0.587    0.00000    
     0.190     0.603    0.00000    
     0.190     0.619    0.00000    
     0.190     0.635    0.00000    
     0.190     0.651    0.00000    
     0.190     0.667    0.00000    
     0.190     0.683    0.00000    
     0.190     0.698    0.00000    
     0.190     0.714    0.00000    
     0.190     0.730    0.00000    
     0.190     0.746    0.00000    
     0.190     0.762    0.00000    
     0.190     0.778    0.00000    
     0.190     0.794    0.00000    
     0.190     0.810    0.00000    
     0.190     0.825    0.00000    
     0.190     0.841    0.00000    
     0.190     0.857    0.00000    
     0.190     0.873    0.00000    
     0.190     0.889    0.00000    
     0.190     0.905    0.00000    
     0.190     0.921    0.00000    
     0.190     0.937    0.00000    
     0.190     0.952    0.00000    
     0.190     0.968    0.00000    
     0.190     0.984    0.00000    