Title="Temperature Data"
Variables="X","Y","T"
 
Zone I=   128, J=   128, F=POINT
     0.000     0.000    0.00000    
     0.000     0.008    0.00000    
     0.000     0.016    0.00000    
     0.000     0.024    0.00000    
     0.000     0.031    0.00000    
     0.000     0.039    0.00000    
     0.000     0.047    0.00000    
     0.000     0.055    0.00000    
     0.000     0.063    0.00000    
     0.000     0.071    0.00000    
     0.000     0.079    0.00000    
     0.000     0.087    0.00000    
     0.000     0.094    0.00000    
     0.000     0.102    0.00000    
     0.000     0.110    0.00000    
     0.000     0.118    0.00000    
     0.000     0.126    0.00000    
     0.000     0.134    0.00000    
     0.000     0.142    0.00000    
     0.000     0.150    0.00000    
     0.000     0.157    0.00000    
     0.000     0.165    0.00000    
     0.000     0.173    0.00000    
     0.000     0.181    0.00000    
     0.000     0.189    0.00000    
     0.000     0.197    0.00000    
     0.000     0.205    0.00000    
     0.000     0.213    0.00000    
     0.000     0.220    0.00000    
     0.000     0.228    0.00000    
     0.000     0.236    0.00000    
     0.000     0.244    0.00000    
     0.000     0.252    0.00000    
     0.000     0.260    0.00000    
     0.000     0.268    0.00000    
     0.000     0.276    0.00000    
     0.000     0.283    0.00000    
     0.000     0.291    0.00000    
     0.000     0.299    0.00000    
     0.000     0.307    0.00000    
     0.000     0.315    0.00000    
     0.000     0.323    0.00000    
     0.000     0.331    0.00000    
     0.000     0.339    0.00000    
     0.000     0.346    0.00000    
     0.000     0.354    0.00000    
     0.000     0.362    0.00000    
     0.000     0.370    0.00000    
     0.000     0.378    0.00000    
     0.000     0.386    0.00000    
     0.000     0.394    0.00000    
     0.000     0.402    0.00000    
     0.000     0.409    0.00000    
     0.000     0.417    0.00000    
     0.000     0.425    0.00000    
     0.000     0.433    0.00000    
     0.000     0.441    0.00000    
     0.000     0.449    0.00000    
     0.000     0.457    0.00000    
     0.000     0.465    0.00000    
     0.000     0.472    0.00000    
     0.000     0.480    0.00000    
     0.000     0.488    0.00000    
     0.000     0.496    0.00000    
     0.000     0.504    0.00000    
     0.000     0.512    0.00000    
     0.000     0.520    0.00000    
     0.000     0.528    0.00000    
     0.000     0.535    0.00000    
     0.000     0.543    0.00000    
     0.000     0.551    0.00000    
     0.000     0.559    0.00000    
     0.000     0.567    0.00000    
     0.000     0.575    0.00000    
     0.000     0.583    0.00000    
     0.000     0.591    0.00000    
     0.000     0.598    0.00000    
     0.000     0.606    0.00000    
     0.000     0.614    0.00000    
     0.000     0.622    0.00000    
     0.000     0.630    0.00000    
     0.000     0.638    0.00000    
     0.000     0.646    0.00000    
     0.000     0.654    0.00000    
     0.000     0.661    0.00000    
     0.000     0.669    0.00000    
     0.000     0.677    0.00000    
     0.000     0.685    0.00000    
     0.000     0.693    0.00000    
     0.000     0.701    0.00000    
     0.000     0.709    0.00000    
     0.000     0.717    0.00000    
     0.000     0.724    0.00000    
     0.000     0.732    0.00000    
     0.000     0.740    0.00000    
     0.000     0.748    0.00000    
     0.000     0.756    0.00000    
     0.000     0.764    0.00000    
     0.000     0.772    0.00000    
     0.000     0.780    0.00000    
     0.000     0.787    0.00000    
     0.000     0.795    0.00000    
     0.000     0.803    0.00000    
     0.000     0.811    0.00000    
     0.000     0.819    0.00000    
     0.000     0.827    0.00000    
     0.000     0.835    0.00000    
     0.000     0.843    0.00000    
     0.000     0.850    0.00000    
     0.000     0.858    0.00000    
     0.000     0.866    0.00000    
     0.000     0.874    0.00000    
     0.000     0.882    0.00000    
     0.000     0.890    0.00000    
     0.000     0.898    0.00000    
     0.000     0.906    0.00000    
     0.000     0.913    0.00000    
     0.000     0.921    0.00000    
     0.000     0.929    0.00000    
     0.000     0.937    0.00000    
     0.000     0.945    0.00000    
     0.000     0.953    0.00000    
     0.000     0.961    0.00000    
     0.000     0.969    0.00000    
     0.000     0.976    0.00000    
     0.000     0.984    0.00000    
     0.000     0.992    0.00000    
     0.000     1.000    0.00000    
     0.008     0.000   0.247344E-01
     0.008     0.008   0.241133E-01
     0.008     0.016   0.235069E-01
     0.008     0.024   0.229149E-01
     0.008     0.031   0.223370E-01
     0.008     0.039   0.217729E-01
     0.008     0.047   0.212221E-01
     0.008     0.055   0.206845E-01
     0.008     0.063   0.201596E-01
     0.008     0.071   0.196473E-01
     0.008     0.079   0.191471E-01
     0.008     0.087   0.186588E-01
     0.008     0.094   0.181821E-01
     0.008     0.102   0.177168E-01
     0.008     0.110   0.172626E-01
     0.008     0.118   0.168191E-01
     0.008     0.126   0.163863E-01
     0.008     0.134   0.159637E-01
     0.008     0.142   0.155513E-01
     0.008     0.150   0.151486E-01
     0.008     0.157   0.147556E-01
     0.008     0.165   0.143720E-01
     0.008     0.173   0.139975E-01
     0.008     0.181   0.136319E-01
     0.008     0.189   0.132752E-01
     0.008     0.197   0.129269E-01
     0.008     0.205   0.125870E-01
     0.008     0.213   0.122552E-01
     0.008     0.220   0.119315E-01
     0.008     0.228   0.116154E-01
     0.008     0.236   0.113070E-01
     0.008     0.244   0.110060E-01
     0.008     0.252   0.107122E-01
     0.008     0.260   0.104255E-01
     0.008     0.268   0.101458E-01
     0.008     0.276   0.987270E-02
     0.008     0.283   0.960632E-02
     0.008     0.291   0.934630E-02
     0.008     0.299   0.909267E-02
     0.008     0.307   0.884510E-02
     0.008     0.315   0.860364E-02
     0.008     0.323   0.836796E-02
     0.008     0.331   0.813811E-02
     0.008     0.339   0.791376E-02
     0.008     0.346   0.769500E-02
     0.008     0.354   0.748148E-02
     0.008     0.362   0.727329E-02
     0.008     0.370   0.707009E-02
     0.008     0.378   0.687200E-02
     0.008     0.386   0.667866E-02
     0.008     0.394   0.649020E-02
     0.008     0.402   0.630627E-02
     0.008     0.409   0.612699E-02
     0.008     0.417   0.595204E-02
     0.008     0.425   0.578152E-02
     0.008     0.433   0.561513E-02
     0.008     0.441   0.545297E-02
     0.008     0.449   0.529474E-02
     0.008     0.457   0.514056E-02
     0.008     0.465   0.499010E-02
     0.008     0.472   0.484352E-02
     0.008     0.480   0.470049E-02
     0.008     0.488   0.456114E-02
     0.008     0.496   0.442517E-02
     0.008     0.504   0.429273E-02
     0.008     0.512   0.416349E-02
     0.008     0.520   0.403761E-02
     0.008     0.528   0.391478E-02
     0.008     0.535   0.379515E-02
     0.008     0.543   0.367842E-02
     0.008     0.551   0.356473E-02
     0.008     0.559   0.345380E-02
     0.008     0.567   0.334577E-02
     0.008     0.575   0.324034E-02
     0.008     0.583   0.313767E-02
     0.008     0.591   0.303748E-02
     0.008     0.598   0.293991E-02
     0.008     0.606   0.284468E-02
     0.008     0.614   0.275194E-02
     0.008     0.622   0.266141E-02
     0.008     0.630   0.257325E-02
     0.008     0.638   0.248718E-02
     0.008     0.646   0.240334E-02
     0.008     0.654   0.232148E-02
     0.008     0.661   0.224173E-02
     0.008     0.669   0.216385E-02
     0.008     0.677   0.208797E-02
     0.008     0.685   0.201383E-02
     0.008     0.693   0.194158E-02
     0.008     0.701   0.187098E-02
     0.008     0.709   0.180215E-02
     0.008     0.717   0.173486E-02
     0.008     0.724   0.166923E-02
     0.008     0.732   0.160504E-02
     0.008     0.740   0.154242E-02
     0.008     0.748   0.148114E-02
     0.008     0.756   0.142131E-02
     0.008     0.764   0.136273E-02
     0.008     0.772   0.130551E-02
     0.008     0.780   0.124945E-02
     0.008     0.787   0.119463E-02
     0.008     0.795   0.114089E-02
     0.008     0.803   0.108831E-02
     0.008     0.811   0.103670E-02
     0.008     0.819   0.986160E-03
     0.008     0.827   0.936514E-03
     0.008     0.835   0.887834E-03
     0.008     0.843   0.839967E-03
     0.008     0.850   0.792974E-03
     0.008     0.858   0.746712E-03
     0.008     0.866   0.701232E-03
     0.008     0.874   0.656403E-03
     0.008     0.882   0.612266E-03
     0.008     0.890   0.568700E-03
     0.008     0.898   0.525738E-03
     0.008     0.906   0.483269E-03
     0.008     0.913   0.441315E-03
     0.008     0.921   0.399777E-03
     0.008     0.929   0.358667E-03
     0.008     0.937   0.317895E-03
     0.008     0.945   0.277466E-03
     0.008     0.953   0.237300E-03
     0.008     0.961   0.197389E-03
     0.008     0.969   0.157666E-03
     0.008     0.976   0.118113E-03
     0.008     0.984   0.786730E-04
     0.008     0.992   0.393178E-04
     0.008     1.000    0.00000    
     0.016     0.000   0.494537E-01
     0.016     0.008   0.482118E-01
     0.016     0.016   0.469994E-01
     0.016     0.024   0.458158E-01
     0.016     0.031   0.446603E-01
     0.016     0.039   0.435324E-01
     0.016     0.047   0.424312E-01
     0.016     0.055   0.413563E-01
     0.016     0.063   0.403069E-01
     0.016     0.071   0.392825E-01
     0.016     0.079   0.382824E-01
     0.016     0.087   0.373062E-01
     0.016     0.094   0.363531E-01
     0.016     0.102   0.354228E-01
     0.016     0.110   0.345146E-01
     0.016     0.118   0.336280E-01
     0.016     0.126   0.327625E-01
     0.016     0.134   0.319178E-01
     0.016     0.142   0.310930E-01
     0.016     0.150   0.302880E-01
     0.016     0.157   0.295022E-01
     0.016     0.165   0.287352E-01
     0.016     0.173   0.279864E-01
     0.016     0.181   0.272556E-01
     0.016     0.189   0.265422E-01
     0.016     0.197   0.258460E-01
     0.016     0.205   0.251663E-01
     0.016     0.213   0.245031E-01
     0.016     0.220   0.238556E-01
     0.016     0.228   0.232238E-01
     0.016     0.236   0.226070E-01
     0.016     0.244   0.220053E-01
     0.016     0.252   0.214178E-01
     0.016     0.260   0.208447E-01
     0.016     0.268   0.202852E-01
     0.016     0.276   0.197394E-01
     0.016     0.283   0.192067E-01
     0.016     0.291   0.186870E-01
     0.016     0.299   0.181797E-01
     0.016     0.307   0.176849E-01
     0.016     0.315   0.172019E-01
     0.016     0.323   0.167309E-01
     0.016     0.331   0.162711E-01
     0.016     0.339   0.158228E-01
     0.016     0.346   0.153852E-01
     0.016     0.354   0.149585E-01
     0.016     0.362   0.145420E-01
     0.016     0.370   0.141360E-01
     0.016     0.378   0.137397E-01
     0.016     0.386   0.133534E-01
     0.016     0.394   0.129763E-01
     0.016     0.402   0.126088E-01
     0.016     0.409   0.122501E-01
     0.016     0.417   0.119005E-01
     0.016     0.425   0.115594E-01
     0.016     0.433   0.112269E-01
     0.016     0.441   0.109025E-01
     0.016     0.449   0.105864E-01
     0.016     0.457   0.102779E-01
     0.016     0.465   0.997727E-02
     0.016     0.472   0.968396E-02
     0.016     0.480   0.939821E-02
     0.016     0.488   0.911938E-02
     0.016     0.496   0.884775E-02
     0.016     0.504   0.858271E-02
     0.016     0.512   0.832455E-02
     0.016     0.520   0.807264E-02
     0.016     0.528   0.782728E-02
     0.016     0.535   0.758787E-02
     0.016     0.543   0.735470E-02
     0.016     0.551   0.712718E-02
     0.016     0.559   0.690560E-02
     0.016     0.567   0.668937E-02
     0.016     0.575   0.647881E-02
     0.016     0.583   0.627332E-02
     0.016     0.591   0.607321E-02
     0.016     0.598   0.587791E-02
     0.016     0.606   0.568772E-02
     0.016     0.614   0.550209E-02
     0.016     0.622   0.532130E-02
     0.016     0.630   0.514482E-02
     0.016     0.638   0.497293E-02
     0.016     0.646   0.480511E-02
     0.016     0.654   0.464164E-02
     0.016     0.661   0.448200E-02
     0.016     0.669   0.432647E-02
     0.016     0.677   0.417456E-02
     0.016     0.685   0.402652E-02
     0.016     0.693   0.388189E-02
     0.016     0.701   0.374090E-02
     0.016     0.709   0.360310E-02
     0.016     0.717   0.346873E-02
     0.016     0.724   0.333735E-02
     0.016     0.732   0.320919E-02
     0.016     0.740   0.308381E-02
     0.016     0.748   0.296144E-02
     0.016     0.756   0.284167E-02
     0.016     0.764   0.272471E-02
     0.016     0.772   0.261015E-02
     0.016     0.780   0.249820E-02
     0.016     0.787   0.238847E-02
     0.016     0.795   0.228115E-02
     0.016     0.803   0.217589E-02
     0.016     0.811   0.207283E-02
     0.016     0.819   0.197166E-02
     0.016     0.827   0.187251E-02
     0.016     0.835   0.177507E-02
     0.016     0.843   0.167947E-02
     0.016     0.850   0.158541E-02
     0.016     0.858   0.149301E-02
     0.016     0.866   0.140199E-02
     0.016     0.874   0.131245E-02
     0.016     0.882   0.122412E-02
     0.016     0.890   0.113709E-02
     0.016     0.898   0.105112E-02
     0.016     0.906   0.966273E-03
     0.016     0.913   0.882332E-03
     0.016     0.921   0.799335E-03
     0.016     0.929   0.717091E-03
     0.016     0.937   0.635617E-03
     0.016     0.945   0.554744E-03
     0.016     0.953   0.474470E-03
     0.016     0.961   0.394645E-03
     0.016     0.969   0.315246E-03
     0.016     0.976   0.236147E-03
     0.016     0.984   0.157303E-03
     0.016     0.992   0.786090E-04
     0.016     1.000    0.00000    
     0.024     0.000   0.741428E-01
     0.024     0.008   0.722808E-01
     0.024     0.016   0.704631E-01
     0.024     0.024   0.686886E-01
     0.024     0.031   0.669564E-01
     0.024     0.039   0.652653E-01
     0.024     0.047   0.636144E-01
     0.024     0.055   0.620028E-01
     0.024     0.063   0.604296E-01
     0.024     0.071   0.588937E-01
     0.024     0.079   0.573944E-01
     0.024     0.087   0.559307E-01
     0.024     0.094   0.545019E-01
     0.024     0.102   0.531071E-01
     0.024     0.110   0.517455E-01
     0.024     0.118   0.504163E-01
     0.024     0.126   0.491188E-01
     0.024     0.134   0.478521E-01
     0.024     0.142   0.466158E-01
     0.024     0.150   0.454088E-01
     0.024     0.157   0.442308E-01
     0.024     0.165   0.430807E-01
     0.024     0.173   0.419583E-01
     0.024     0.181   0.408625E-01
     0.024     0.189   0.397931E-01
     0.024     0.197   0.387491E-01
     0.024     0.205   0.377303E-01
     0.024     0.213   0.367357E-01
     0.024     0.220   0.357653E-01
     0.024     0.228   0.348178E-01
     0.024     0.236   0.338934E-01
     0.024     0.244   0.329910E-01
     0.024     0.252   0.321105E-01
     0.024     0.260   0.312510E-01
     0.024     0.268   0.304125E-01
     0.024     0.276   0.295939E-01
     0.024     0.283   0.287955E-01
     0.024     0.291   0.280160E-01
     0.024     0.299   0.272558E-01
     0.024     0.307   0.265137E-01
     0.024     0.315   0.257899E-01
     0.024     0.323   0.250834E-01
     0.024     0.331   0.243944E-01
     0.024     0.339   0.237219E-01
     0.024     0.346   0.230662E-01
     0.024     0.354   0.224261E-01
     0.024     0.362   0.218021E-01
     0.024     0.370   0.211930E-01
     0.024     0.378   0.205992E-01
     0.024     0.386   0.200196E-01
     0.024     0.394   0.194547E-01
     0.024     0.402   0.189034E-01
     0.024     0.409   0.183660E-01
     0.024     0.417   0.178415E-01
     0.024     0.425   0.173304E-01
     0.024     0.433   0.168316E-01
     0.024     0.441   0.163456E-01
     0.024     0.449   0.158713E-01
     0.024     0.457   0.154091E-01
     0.024     0.465   0.149581E-01
     0.024     0.472   0.145187E-01
     0.024     0.480   0.140900E-01
     0.024     0.488   0.136723E-01
     0.024     0.496   0.132647E-01
     0.024     0.504   0.128677E-01
     0.024     0.512   0.124803E-01
     0.024     0.520   0.121029E-01
     0.024     0.528   0.117348E-01
     0.024     0.535   0.113762E-01
     0.024     0.543   0.110263E-01
     0.024     0.551   0.106855E-01
     0.024     0.559   0.103529E-01
     0.024     0.567   0.100291E-01
     0.024     0.575   0.971309E-02
     0.024     0.583   0.940535E-02
     0.024     0.591   0.910501E-02
     0.024     0.598   0.881253E-02
     0.024     0.606   0.852708E-02
     0.024     0.614   0.824908E-02
     0.024     0.622   0.797772E-02
     0.024     0.630   0.771345E-02
     0.024     0.638   0.745544E-02
     0.024     0.646   0.720414E-02
     0.024     0.654   0.695876E-02
     0.024     0.661   0.671972E-02
     0.024     0.669   0.648626E-02
     0.024     0.677   0.625879E-02
     0.024     0.685   0.603657E-02
     0.024     0.693   0.582000E-02
     0.024     0.701   0.560835E-02
     0.024     0.709   0.540203E-02
     0.024     0.717   0.520032E-02
     0.024     0.724   0.500360E-02
     0.024     0.732   0.481121E-02
     0.024     0.740   0.462348E-02
     0.024     0.748   0.443979E-02
     0.024     0.756   0.426045E-02
     0.024     0.764   0.408487E-02
     0.024     0.772   0.391333E-02
     0.024     0.780   0.374528E-02
     0.024     0.787   0.358098E-02
     0.024     0.795   0.341989E-02
     0.024     0.803   0.326226E-02
     0.024     0.811   0.310757E-02
     0.024     0.819   0.295607E-02
     0.024     0.827   0.280725E-02
     0.024     0.835   0.266133E-02
     0.024     0.843   0.251785E-02
     0.024     0.850   0.237698E-02
     0.024     0.858   0.223831E-02
     0.024     0.866   0.210198E-02
     0.024     0.874   0.196760E-02
     0.024     0.882   0.183530E-02
     0.024     0.890   0.170471E-02
     0.024     0.898   0.157593E-02
     0.024     0.906   0.144862E-02
     0.024     0.913   0.132287E-02
     0.024     0.921   0.119835E-02
     0.024     0.929   0.107512E-02
     0.024     0.937   0.952908E-03
     0.024     0.945   0.831720E-03
     0.024     0.953   0.711318E-03
     0.024     0.961   0.591685E-03
     0.024     0.969   0.472612E-03
     0.024     0.976   0.354051E-03
     0.024     0.984   0.235827E-03
     0.024     0.992   0.117857E-03
     0.024     1.000    0.00000    
     0.031     0.000   0.987864E-01
     0.031     0.008   0.963056E-01
     0.031     0.016   0.938837E-01
     0.031     0.024   0.915195E-01
     0.031     0.031   0.892114E-01
     0.031     0.039   0.869583E-01
     0.031     0.047   0.847587E-01
     0.031     0.055   0.826114E-01
     0.031     0.063   0.805152E-01
     0.031     0.071   0.784689E-01
     0.031     0.079   0.764712E-01
     0.031     0.087   0.745211E-01
     0.031     0.094   0.726173E-01
     0.031     0.102   0.707589E-01
     0.031     0.110   0.689447E-01
     0.031     0.118   0.671738E-01
     0.031     0.126   0.654449E-01
     0.031     0.134   0.637574E-01
     0.031     0.142   0.621099E-01
     0.031     0.150   0.605020E-01
     0.031     0.157   0.589321E-01
     0.031     0.165   0.574000E-01
     0.031     0.173   0.559043E-01
     0.031     0.181   0.544445E-01
     0.031     0.189   0.530194E-01
     0.031     0.197   0.516287E-01
     0.031     0.205   0.502710E-01
     0.031     0.213   0.489462E-01
     0.031     0.220   0.476528E-01
     0.031     0.228   0.463908E-01
     0.031     0.236   0.451588E-01
     0.031     0.244   0.439567E-01
     0.031     0.252   0.427832E-01
     0.031     0.260   0.416384E-01
     0.031     0.268   0.405208E-01
     0.031     0.276   0.394306E-01
     0.031     0.283   0.383663E-01
     0.031     0.291   0.373282E-01
     0.031     0.299   0.363149E-01
     0.031     0.307   0.353265E-01
     0.031     0.315   0.343618E-01
     0.031     0.323   0.334208E-01
     0.031     0.331   0.325025E-01
     0.031     0.339   0.316069E-01
     0.031     0.346   0.307327E-01
     0.031     0.354   0.298804E-01
     0.031     0.362   0.290484E-01
     0.031     0.370   0.282374E-01
     0.031     0.378   0.274457E-01
     0.031     0.386   0.266740E-01
     0.031     0.394   0.259209E-01
     0.031     0.402   0.251867E-01
     0.031     0.409   0.244703E-01
     0.031     0.417   0.237720E-01
     0.031     0.425   0.230905E-01
     0.031     0.433   0.224264E-01
     0.031     0.441   0.217783E-01
     0.031     0.449   0.211468E-01
     0.031     0.457   0.205306E-01
     0.031     0.465   0.199301E-01
     0.031     0.472   0.193442E-01
     0.031     0.480   0.187734E-01
     0.031     0.488   0.182164E-01
     0.031     0.496   0.176739E-01
     0.031     0.504   0.171444E-01
     0.031     0.512   0.166287E-01
     0.031     0.520   0.161255E-01
     0.031     0.528   0.156354E-01
     0.031     0.535   0.151572E-01
     0.031     0.543   0.146914E-01
     0.031     0.551   0.142369E-01
     0.031     0.559   0.137943E-01
     0.031     0.567   0.133624E-01
     0.031     0.575   0.129418E-01
     0.031     0.583   0.125313E-01
     0.031     0.591   0.121316E-01
     0.031     0.598   0.117414E-01
     0.031     0.606   0.113615E-01
     0.031     0.614   0.109907E-01
     0.031     0.622   0.106296E-01
     0.031     0.630   0.102770E-01
     0.031     0.638   0.993369E-02
     0.031     0.646   0.959846E-02
     0.031     0.654   0.927191E-02
     0.031     0.661   0.895303E-02
     0.031     0.669   0.864236E-02
     0.031     0.677   0.833890E-02
     0.031     0.685   0.804320E-02
     0.031     0.693   0.775427E-02
     0.031     0.701   0.747264E-02
     0.031     0.709   0.719738E-02
     0.031     0.717   0.692898E-02
     0.031     0.724   0.666654E-02
     0.031     0.732   0.641052E-02
     0.031     0.740   0.616008E-02
     0.031     0.748   0.591564E-02
     0.031     0.756   0.567639E-02
     0.031     0.764   0.544274E-02
     0.031     0.772   0.521391E-02
     0.031     0.780   0.499028E-02
     0.031     0.787   0.477109E-02
     0.031     0.795   0.455672E-02
     0.031     0.803   0.434645E-02
     0.031     0.811   0.414059E-02
     0.031     0.819   0.393849E-02
     0.031     0.827   0.374044E-02
     0.031     0.835   0.354580E-02
     0.031     0.843   0.335483E-02
     0.031     0.850   0.316695E-02
     0.031     0.858   0.298237E-02
     0.031     0.866   0.280055E-02
     0.031     0.874   0.262168E-02
     0.031     0.882   0.244524E-02
     0.031     0.890   0.227140E-02
     0.031     0.898   0.209967E-02
     0.031     0.906   0.193018E-02
     0.031     0.913   0.176250E-02
     0.031     0.921   0.159671E-02
     0.031     0.929   0.143243E-02
     0.031     0.937   0.126968E-02
     0.031     0.945   0.110813E-02
     0.031     0.953   0.947778E-03
     0.031     0.961   0.788323E-03
     0.031     0.969   0.629721E-03
     0.031     0.976   0.471716E-03
     0.031     0.984   0.314221E-03
     0.031     0.992   0.157026E-03
     0.031     1.000    0.00000    
     0.039     0.000   0.123370    
     0.039     0.008   0.120271    
     0.039     0.016   0.117247    
     0.039     0.024   0.114294    
     0.039     0.031   0.111412    
     0.039     0.039   0.108598    
     0.039     0.047   0.105851    
     0.039     0.055   0.103169    
     0.039     0.063   0.100552    
     0.039     0.071   0.979960E-01
     0.039     0.079   0.955013E-01
     0.039     0.087   0.930657E-01
     0.039     0.094   0.906883E-01
     0.039     0.102   0.883674E-01
     0.039     0.110   0.861018E-01
     0.039     0.118   0.838900E-01
     0.039     0.126   0.817311E-01
     0.039     0.134   0.796234E-01
     0.039     0.142   0.775663E-01
     0.039     0.150   0.755579E-01
     0.039     0.157   0.735977E-01
     0.039     0.165   0.716840E-01
     0.039     0.173   0.698164E-01
     0.039     0.181   0.679930E-01
     0.039     0.189   0.662136E-01
     0.039     0.197   0.644765E-01
     0.039     0.205   0.627813E-01
     0.039     0.213   0.611264E-01
     0.039     0.220   0.595115E-01
     0.039     0.228   0.579350E-01
     0.039     0.236   0.563968E-01
     0.039     0.244   0.548952E-01
     0.039     0.252   0.534302E-01
     0.039     0.260   0.520000E-01
     0.039     0.268   0.506047E-01
     0.039     0.276   0.492427E-01
     0.039     0.283   0.479141E-01
     0.039     0.291   0.466172E-01
     0.039     0.299   0.453522E-01
     0.039     0.307   0.441173E-01
     0.039     0.315   0.429130E-01
     0.039     0.323   0.417374E-01
     0.039     0.331   0.405910E-01
     0.039     0.339   0.394720E-01
     0.039     0.346   0.383809E-01
     0.039     0.354   0.373159E-01
     0.039     0.362   0.362775E-01
     0.039     0.370   0.352640E-01
     0.039     0.378   0.342760E-01
     0.039     0.386   0.333116E-01
     0.039     0.394   0.323716E-01
     0.039     0.402   0.314542E-01
     0.039     0.409   0.305600E-01
     0.039     0.417   0.296874E-01
     0.039     0.425   0.288369E-01
     0.039     0.433   0.280070E-01
     0.039     0.441   0.271982E-01
     0.039     0.449   0.264089E-01
     0.039     0.457   0.256399E-01
     0.039     0.465   0.248895E-01
     0.039     0.472   0.241584E-01
     0.039     0.480   0.234449E-01
     0.039     0.488   0.227499E-01
     0.039     0.496   0.220717E-01
     0.039     0.504   0.214111E-01
     0.039     0.512   0.207665E-01
     0.039     0.520   0.201387E-01
     0.039     0.528   0.195260E-01
     0.039     0.535   0.189293E-01
     0.039     0.543   0.183471E-01
     0.039     0.551   0.177801E-01
     0.039     0.559   0.172268E-01
     0.039     0.567   0.166879E-01
     0.039     0.575   0.161621E-01
     0.039     0.583   0.156500E-01
     0.039     0.591   0.151503E-01
     0.039     0.598   0.146636E-01
     0.039     0.606   0.141886E-01
     0.039     0.614   0.137260E-01
     0.039     0.622   0.132745E-01
     0.039     0.630   0.128348E-01
     0.039     0.638   0.124055E-01
     0.039     0.646   0.119873E-01
     0.039     0.654   0.115790E-01
     0.039     0.661   0.111813E-01
     0.039     0.669   0.107928E-01
     0.039     0.677   0.104143E-01
     0.039     0.685   0.100445E-01
     0.039     0.693   0.968417E-02
     0.039     0.701   0.933201E-02
     0.039     0.709   0.898869E-02
     0.039     0.717   0.865306E-02
     0.039     0.724   0.832573E-02
     0.039     0.732   0.800559E-02
     0.039     0.740   0.769323E-02
     0.039     0.748   0.738757E-02
     0.039     0.756   0.708916E-02
     0.039     0.764   0.679700E-02
     0.039     0.772   0.651158E-02
     0.039     0.780   0.623195E-02
     0.039     0.787   0.595856E-02
     0.039     0.795   0.569051E-02
     0.039     0.803   0.542822E-02
     0.039     0.811   0.517084E-02
     0.039     0.819   0.491874E-02
     0.039     0.827   0.467112E-02
     0.039     0.835   0.442831E-02
     0.039     0.843   0.418956E-02
     0.039     0.850   0.395517E-02
     0.039     0.858   0.372443E-02
     0.039     0.866   0.349758E-02
     0.039     0.874   0.327399E-02
     0.039     0.882   0.305384E-02
     0.039     0.890   0.283655E-02
     0.039     0.898   0.262226E-02
     0.039     0.906   0.241043E-02
     0.039     0.913   0.220118E-02
     0.039     0.921   0.199399E-02
     0.039     0.929   0.178895E-02
     0.039     0.937   0.158559E-02
     0.039     0.945   0.138394E-02
     0.039     0.953   0.118360E-02
     0.039     0.961   0.984532E-03
     0.039     0.969   0.786402E-03
     0.039     0.976   0.589123E-03
     0.039     0.984   0.392403E-03
     0.039     0.992   0.196108E-03
     0.039     1.000    0.00000    
     0.047     0.000   0.147877    
     0.047     0.008   0.144164    
     0.047     0.016   0.140538    
     0.047     0.024   0.136999    
     0.047     0.031   0.133544    
     0.047     0.039   0.130171    
     0.047     0.047   0.126879    
     0.047     0.055   0.123664    
     0.047     0.063   0.120526    
     0.047     0.071   0.117463    
     0.047     0.079   0.114473    
     0.047     0.087   0.111554    
     0.047     0.094   0.108704    
     0.047     0.102   0.105922    
     0.047     0.110   0.103206    
     0.047     0.118   0.100555    
     0.047     0.126   0.979671E-01
     0.047     0.134   0.954410E-01
     0.047     0.142   0.929749E-01
     0.047     0.150   0.905678E-01
     0.047     0.157   0.882179E-01
     0.047     0.165   0.859244E-01
     0.047     0.173   0.836854E-01
     0.047     0.181   0.815002E-01
     0.047     0.189   0.793669E-01
     0.047     0.197   0.772851E-01
     0.047     0.205   0.752527E-01
     0.047     0.213   0.732695E-01
     0.047     0.220   0.713334E-01
     0.047     0.228   0.694442E-01
     0.047     0.236   0.676000E-01
     0.047     0.244   0.658005E-01
     0.047     0.252   0.640440E-01
     0.047     0.260   0.623302E-01
     0.047     0.268   0.606573E-01
     0.047     0.276   0.590252E-01
     0.047     0.283   0.574321E-01
     0.047     0.291   0.558781E-01
     0.047     0.299   0.543612E-01
     0.047     0.307   0.528817E-01
     0.047     0.315   0.514375E-01
     0.047     0.323   0.500290E-01
     0.047     0.331   0.486542E-01
     0.047     0.339   0.473136E-01
     0.047     0.346   0.460050E-01
     0.047     0.354   0.447291E-01
     0.047     0.362   0.434838E-01
     0.047     0.370   0.422696E-01
     0.047     0.378   0.410846E-01
     0.047     0.386   0.399294E-01
     0.047     0.394   0.388020E-01
     0.047     0.402   0.377030E-01
     0.047     0.409   0.366305E-01
     0.047     0.417   0.355852E-01
     0.047     0.425   0.345651E-01
     0.047     0.433   0.335710E-01
     0.047     0.441   0.326008E-01
     0.047     0.449   0.316555E-01
     0.047     0.457   0.307330E-01
     0.047     0.465   0.298342E-01
     0.047     0.472   0.289572E-01
     0.047     0.480   0.281027E-01
     0.047     0.488   0.272689E-01