Title="Temperature Data"
Variables="X","Y","T"
 
Zone I=   128, J=   128, F=POINT
     0.000     0.000    0.00000    
     0.000     0.008    0.00000    
     0.000     0.016    0.00000    
     0.000     0.024    0.00000    
     0.000     0.031    0.00000    
     0.000     0.039    0.00000    
     0.000     0.047    0.00000    
     0.000     0.055    0.00000    
     0.000     0.063    0.00000    
     0.000     0.071    0.00000    
     0.000     0.079    0.00000    
     0.000     0.087    0.00000    
     0.000     0.094    0.00000    
     0.000     0.102    0.00000    
     0.000     0.110    0.00000    
     0.000     0.118    0.00000    
     0.000     0.126    0.00000    
     0.000     0.134    0.00000    
     0.000     0.142    0.00000    
     0.000     0.150    0.00000    
     0.000     0.157    0.00000    
     0.000     0.165    0.00000    
     0.000     0.173    0.00000    
     0.000     0.181    0.00000    
     0.000     0.189    0.00000    
     0.000     0.197    0.00000    
     0.000     0.205    0.00000    
     0.000     0.213    0.00000    
     0.000     0.220    0.00000    
     0.000     0.228    0.00000    
     0.000     0.236    0.00000    
     0.000     0.244    0.00000    
     0.000     0.252    0.00000    
     0.000     0.260    0.00000    
     0.000     0.268    0.00000    
     0.000     0.276    0.00000    
     0.000     0.283    0.00000    
     0.000     0.291    0.00000    
     0.000     0.299    0.00000    
     0.000     0.307    0.00000    
     0.000     0.315    0.00000    
     0.000     0.323    0.00000    
     0.000     0.331    0.00000    
     0.000     0.339    0.00000    
     0.000     0.346    0.00000    
     0.000     0.354    0.00000    
     0.000     0.362    0.00000    
     0.000     0.370    0.00000    
     0.000     0.378    0.00000    
     0.000     0.386    0.00000    
     0.000     0.394    0.00000    
     0.000     0.402    0.00000    
     0.000     0.409    0.00000    
     0.000     0.417    0.00000    
     0.000     0.425    0.00000    
     0.000     0.433    0.00000    
     0.000     0.441    0.00000    
     0.000     0.449    0.00000    
     0.000     0.457    0.00000    
     0.000     0.465    0.00000    
     0.000     0.472    0.00000    
     0.000     0.480    0.00000    
     0.000     0.488    0.00000    
     0.000     0.496    0.00000    
     0.000     0.504    0.00000    
     0.000     0.512    0.00000    
     0.000     0.520    0.00000    
     0.000     0.528    0.00000    
     0.000     0.535    0.00000    
     0.000     0.543    0.00000    
     0.000     0.551    0.00000    
     0.000     0.559    0.00000    
     0.000     0.567    0.00000    
     0.000     0.575    0.00000    
     0.000     0.583    0.00000    
     0.000     0.591    0.00000    
     0.000     0.598    0.00000    
     0.000     0.606    0.00000    
     0.000     0.614    0.00000    
     0.000     0.622    0.00000    
     0.000     0.630    0.00000    
     0.000     0.638    0.00000    
     0.000     0.646    0.00000    
     0.000     0.654    0.00000    
     0.000     0.661    0.00000    
     0.000     0.669    0.00000    
     0.000     0.677    0.00000    
     0.000     0.685    0.00000    
     0.000     0.693    0.00000    
     0.000     0.701    0.00000    
     0.000     0.709    0.00000    
     0.000     0.717    0.00000    
     0.000     0.724    0.00000    
     0.000     0.732    0.00000    
     0.000     0.740    0.00000    
     0.000     0.748    0.00000    
     0.000     0.756    0.00000    
     0.000     0.764    0.00000    
     0.000     0.772    0.00000    
     0.000     0.780    0.00000    
     0.000     0.787    0.00000    
     0.000     0.795    0.00000    
     0.000     0.803    0.00000    
     0.000     0.811    0.00000    
     0.000     0.819    0.00000    
     0.000     0.827    0.00000    
     0.000     0.835    0.00000    
     0.000     0.843    0.00000    
     0.000     0.850    0.00000    
     0.000     0.858    0.00000    
     0.000     0.866    0.00000    
     0.000     0.874    0.00000    
     0.000     0.882    0.00000    
     0.000     0.890    0.00000    
     0.000     0.898    0.00000    
     0.000     0.906    0.00000    
     0.000     0.913    0.00000    
     0.000     0.921    0.00000    
     0.000     0.929    0.00000    
     0.000     0.937    0.00000    
     0.000     0.945    0.00000    
     0.000     0.953    0.00000    
     0.000     0.961    0.00000    
     0.000     0.969    0.00000    
     0.000     0.976    0.00000    
     0.000     0.984    0.00000    
     0.000     0.992    0.00000    
     0.000     1.000    0.00000    
     0.008     0.000   0.247344E-01
     0.008     0.008   0.241185E-01
     0.008     0.016   0.235174E-01
     0.008     0.024   0.229307E-01
     0.008     0.031   0.223581E-01
     0.008     0.039   0.217992E-01
     0.008     0.047   0.212537E-01
     0.008     0.055   0.207213E-01
     0.008     0.063   0.202016E-01
     0.008     0.071   0.196944E-01
     0.008     0.079   0.191993E-01
     0.008     0.087   0.187161E-01
     0.008     0.094   0.182445E-01
     0.008     0.102   0.177842E-01
     0.008     0.110   0.173349E-01
     0.008     0.118   0.168963E-01
     0.008     0.126   0.164683E-01
     0.008     0.134   0.160506E-01
     0.008     0.142   0.156428E-01
     0.008     0.150   0.152448E-01
     0.008     0.157   0.148564E-01
     0.008     0.165   0.144773E-01
     0.008     0.173   0.141073E-01
     0.008     0.181   0.137461E-01
     0.008     0.189   0.133936E-01
     0.008     0.197   0.130495E-01
     0.008     0.205   0.127138E-01
     0.008     0.213   0.123860E-01
     0.008     0.220   0.120662E-01
     0.008     0.228   0.117540E-01
     0.008     0.236   0.114493E-01
     0.008     0.244   0.111519E-01
     0.008     0.252   0.108618E-01
     0.008     0.260   0.105785E-01
     0.008     0.268   0.103021E-01
     0.008     0.276   0.100323E-01
     0.008     0.283   0.976902E-02
     0.008     0.291   0.951202E-02
     0.008     0.299   0.926130E-02
     0.008     0.307   0.901654E-02
     0.008     0.315   0.877775E-02
     0.008     0.323   0.854464E-02
     0.008     0.331   0.831723E-02
     0.008     0.339   0.809522E-02
     0.008     0.346   0.787866E-02
     0.008     0.354   0.766723E-02
     0.008     0.362   0.746100E-02
     0.008     0.370   0.725966E-02
     0.008     0.378   0.706327E-02
     0.008     0.386   0.687154E-02
     0.008     0.394   0.668454E-02
     0.008     0.402   0.650196E-02
     0.008     0.409   0.632389E-02
     0.008     0.417   0.615003E-02
     0.008     0.425   0.598048E-02
     0.008     0.433   0.581493E-02
     0.008     0.441   0.565348E-02
     0.008     0.449   0.549583E-02
     0.008     0.457   0.534210E-02
     0.008     0.465   0.519199E-02
     0.008     0.472   0.504560E-02
     0.008     0.480   0.490265E-02
     0.008     0.488   0.476326E-02
     0.008     0.496   0.462713E-02
     0.008     0.504   0.449438E-02
     0.008     0.512   0.436474E-02
     0.008     0.520   0.423831E-02
     0.008     0.528   0.411483E-02
     0.008     0.535   0.399441E-02
     0.008     0.543   0.387679E-02
     0.008     0.551   0.376208E-02
     0.008     0.559   0.365002E-02
     0.008     0.567   0.354072E-02
     0.008     0.575   0.343394E-02
     0.008     0.583   0.332979E-02
     0.008     0.591   0.322801E-02
     0.008     0.598   0.312873E-02
     0.008     0.606   0.303169E-02
     0.008     0.614   0.293703E-02
     0.008     0.622   0.284448E-02
     0.008     0.630   0.275418E-02
     0.008     0.638   0.266588E-02
     0.008     0.646   0.257971E-02
     0.008     0.654   0.249542E-02
     0.008     0.661   0.241314E-02
     0.008     0.669   0.233263E-02
     0.008     0.677   0.225402E-02
     0.008     0.685   0.217708E-02
     0.008     0.693   0.210192E-02
     0.008     0.701   0.202833E-02
     0.008     0.709   0.195642E-02
     0.008     0.717   0.188598E-02
     0.008     0.724   0.181710E-02
     0.008     0.732   0.174960E-02
     0.008     0.740   0.168357E-02
     0.008     0.748   0.161882E-02
     0.008     0.756   0.155544E-02
     0.008     0.764   0.149325E-02
     0.008     0.772   0.143233E-02
     0.008     0.780   0.137252E-02
     0.008     0.787   0.131388E-02
     0.008     0.795   0.125626E-02
     0.008     0.803   0.119973E-02
     0.008     0.811   0.114413E-02
     0.008     0.819   0.108953E-02
     0.008     0.827   0.103578E-02
     0.008     0.835   0.982933E-03
     0.008     0.843   0.930859E-03
     0.008     0.850   0.879607E-03
     0.008     0.858   0.829047E-03
     0.008     0.866   0.779223E-03
     0.008     0.874   0.730013E-03
     0.008     0.882   0.681456E-03
     0.008     0.890   0.633437E-03
     0.008     0.898   0.585986E-03
     0.008     0.906   0.539000E-03
     0.008     0.913   0.492500E-03
     0.008     0.921   0.446391E-03
     0.008     0.929   0.400686E-03
     0.008     0.937   0.355299E-03
     0.008     0.945   0.310235E-03
     0.008     0.953   0.265418E-03
     0.008     0.961   0.220842E-03
     0.008     0.969   0.176443E-03
     0.008     0.976   0.132204E-03
     0.008     0.984   0.880708E-04
     0.008     0.992   0.440178E-04
     0.008     1.000    0.00000    
     0.016     0.000   0.494537E-01
     0.016     0.008   0.482223E-01
     0.016     0.016   0.470205E-01
     0.016     0.024   0.458475E-01
     0.016     0.031   0.447025E-01
     0.016     0.039   0.435851E-01
     0.016     0.047   0.424944E-01
     0.016     0.055   0.414299E-01
     0.016     0.063   0.403908E-01
     0.016     0.071   0.393767E-01
     0.016     0.079   0.383869E-01
     0.016     0.087   0.374208E-01
     0.016     0.094   0.364778E-01
     0.016     0.102   0.355575E-01
     0.016     0.110   0.346591E-01
     0.016     0.118   0.337824E-01
     0.016     0.126   0.329266E-01
     0.016     0.134   0.320913E-01
     0.016     0.142   0.312760E-01
     0.016     0.150   0.304804E-01
     0.016     0.157   0.297037E-01
     0.016     0.165   0.289457E-01
     0.016     0.173   0.282058E-01
     0.016     0.181   0.274838E-01
     0.016     0.189   0.267789E-01
     0.016     0.197   0.260911E-01
     0.016     0.205   0.254197E-01
     0.016     0.213   0.247645E-01
     0.016     0.220   0.241249E-01
     0.016     0.228   0.235008E-01
     0.016     0.236   0.228916E-01
     0.016     0.244   0.222971E-01
     0.016     0.252   0.217168E-01
     0.016     0.260   0.211506E-01
     0.016     0.268   0.205978E-01
     0.016     0.276   0.200585E-01
     0.016     0.283   0.195320E-01
     0.016     0.291   0.190183E-01
     0.016     0.299   0.185169E-01
     0.016     0.307   0.180276E-01
     0.016     0.315   0.175500E-01
     0.016     0.323   0.170841E-01
     0.016     0.331   0.166293E-01
     0.016     0.339   0.161856E-01
     0.016     0.346   0.157524E-01
     0.016     0.354   0.153299E-01
     0.016     0.362   0.149173E-01
     0.016     0.370   0.145150E-01
     0.016     0.378   0.141221E-01
     0.016     0.386   0.137390E-01
     0.016     0.394   0.133649E-01
     0.016     0.402   0.130000E-01
     0.016     0.409   0.126438E-01
     0.016     0.417   0.122964E-01
     0.016     0.425   0.119572E-01
     0.016     0.433   0.116264E-01
     0.016     0.441   0.113034E-01
     0.016     0.449   0.109884E-01
     0.016     0.457   0.106808E-01
     0.016     0.465   0.103809E-01
     0.016     0.472   0.100880E-01
     0.016     0.480   0.980241E-02
     0.016     0.488   0.952350E-02
     0.016     0.496   0.925153E-02
     0.016     0.504   0.898591E-02
     0.016     0.512   0.872690E-02
     0.016     0.520   0.847393E-02
     0.016     0.528   0.822724E-02
     0.016     0.535   0.798628E-02
     0.016     0.543   0.775131E-02
     0.016     0.551   0.752176E-02
     0.016     0.559   0.729790E-02
     0.016     0.567   0.707918E-02
     0.016     0.575   0.686588E-02
     0.016     0.583   0.665744E-02
     0.016     0.591   0.645414E-02
     0.016     0.598   0.625545E-02
     0.016     0.606   0.606162E-02
     0.016     0.614   0.587216E-02
     0.016     0.622   0.568731E-02
     0.016     0.630   0.550658E-02
     0.016     0.638   0.533022E-02
     0.016     0.646   0.515774E-02
     0.016     0.654   0.498939E-02
     0.016     0.661   0.482471E-02
     0.016     0.669   0.466392E-02
     0.016     0.677   0.450658E-02
     0.016     0.685   0.435291E-02
     0.016     0.693   0.420248E-02
     0.016     0.701   0.405551E-02
     0.016     0.709   0.391157E-02
     0.016     0.717   0.377087E-02
     0.016     0.724   0.363302E-02
     0.016     0.732   0.349821E-02
     0.016     0.740   0.336604E-02
     0.016     0.748   0.323672E-02
     0.016     0.756   0.310986E-02
     0.016     0.764   0.298565E-02
     0.016     0.772   0.286373E-02
     0.016     0.780   0.274426E-02
     0.016     0.787   0.262690E-02
     0.016     0.795   0.251182E-02
     0.016     0.803   0.239867E-02
     0.016     0.811   0.228762E-02
     0.016     0.819   0.217834E-02
     0.016     0.827   0.207097E-02
     0.016     0.835   0.196522E-02
     0.016     0.843   0.186119E-02
     0.016     0.850   0.175863E-02
     0.016     0.858   0.165763E-02
     0.016     0.866   0.155793E-02
     0.016     0.874   0.145962E-02
     0.016     0.882   0.136246E-02
     0.016     0.890   0.126652E-02
     0.016     0.898   0.117158E-02
     0.016     0.906   0.107770E-02
     0.016     0.913   0.984672E-03
     0.016     0.921   0.892533E-03
     0.016     0.929   0.801104E-03
     0.016     0.937   0.710401E-03
     0.016     0.945   0.620263E-03
     0.016     0.953   0.530688E-03
     0.016     0.961   0.441537E-03
     0.016     0.969   0.352788E-03
     0.016     0.976   0.264320E-03
     0.016     0.984   0.176093E-03
     0.016     0.992   0.880063E-04
     0.016     1.000    0.00000    
     0.024     0.000   0.741428E-01
     0.024     0.008   0.722966E-01
     0.024     0.016   0.704948E-01
     0.024     0.024   0.687361E-01
     0.024     0.031   0.670196E-01
     0.024     0.039   0.653443E-01
     0.024     0.047   0.637091E-01
     0.024     0.055   0.621131E-01
     0.024     0.063   0.605554E-01
     0.024     0.071   0.590349E-01
     0.024     0.079   0.575510E-01
     0.024     0.087   0.561025E-01
     0.024     0.094   0.546888E-01
     0.024     0.102   0.533089E-01
     0.024     0.110   0.519622E-01
     0.024     0.118   0.506477E-01
     0.024     0.126   0.493647E-01
     0.024     0.134   0.481124E-01
     0.024     0.142   0.468902E-01
     0.024     0.150   0.456972E-01
     0.024     0.157   0.445329E-01
     0.024     0.165   0.433964E-01
     0.024     0.173   0.422872E-01
     0.024     0.181   0.412046E-01
     0.024     0.189   0.401480E-01
     0.024     0.197   0.391167E-01
     0.024     0.205   0.381102E-01
     0.024     0.213   0.371277E-01
     0.024     0.220   0.361690E-01
     0.024     0.228   0.352332E-01
     0.024     0.236   0.343200E-01
     0.024     0.244   0.334285E-01
     0.024     0.252   0.325587E-01
     0.024     0.260   0.317095E-01
     0.024     0.268   0.308810E-01
     0.024     0.276   0.300722E-01
     0.024     0.283   0.292831E-01
     0.024     0.291   0.285128E-01
     0.024     0.299   0.277612E-01
     0.024     0.307   0.270275E-01
     0.024     0.315   0.263118E-01
     0.024     0.323   0.256130E-01
     0.024     0.331   0.249313E-01
     0.024     0.339   0.242659E-01
     0.024     0.346   0.236167E-01
     0.024     0.354   0.229829E-01
     0.024     0.362   0.223647E-01
     0.024     0.370   0.217612E-01
     0.024     0.378   0.211725E-01
     0.024     0.386   0.205978E-01
     0.024     0.394   0.200373E-01
     0.024     0.402   0.194900E-01
     0.024     0.409   0.189562E-01
     0.024     0.417   0.184350E-01
     0.024     0.425   0.179268E-01
     0.024     0.433   0.174305E-01
     0.024     0.441   0.169466E-01
     0.024     0.449   0.164741E-01
     0.024     0.457   0.160132E-01
     0.024     0.465   0.155633E-01
     0.024     0.472   0.151245E-01
     0.024     0.480   0.146960E-01
     0.024     0.488   0.142781E-01
     0.024     0.496   0.138701E-01
     0.024     0.504   0.134722E-01
     0.024     0.512   0.130835E-01
     0.024     0.520   0.127046E-01
     0.024     0.528   0.123344E-01
     0.024     0.535   0.119735E-01
     0.024     0.543   0.116209E-01
     0.024     0.551   0.112770E-01
     0.024     0.559   0.109411E-01
     0.024     0.567   0.106135E-01
     0.024     0.575   0.102934E-01
     0.024     0.583   0.998121E-02
     0.024     0.591   0.967612E-02
     0.024     0.598   0.937853E-02
     0.024     0.606   0.908765E-02
     0.024     0.614   0.880389E-02
     0.024     0.622   0.852648E-02
     0.024     0.630   0.825580E-02
     0.024     0.638   0.799111E-02
     0.024     0.646   0.773280E-02
     0.024     0.654   0.748014E-02
     0.024     0.661   0.723350E-02
     0.024     0.669   0.699219E-02
     0.024     0.677   0.675655E-02
     0.024     0.685   0.652591E-02
     0.024     0.693   0.630063E-02
     0.024     0.701   0.608004E-02
     0.024     0.709   0.586448E-02
     0.024     0.717   0.565331E-02
     0.024     0.724   0.544686E-02
     0.024     0.732   0.524452E-02
     0.024     0.740   0.504660E-02
     0.024     0.748   0.485250E-02
     0.024     0.756   0.466252E-02
     0.024     0.764   0.447610E-02
     0.024     0.772   0.429350E-02
     0.024     0.780   0.411420E-02
     0.024     0.787   0.393844E-02
     0.024     0.795   0.376572E-02
     0.024     0.803   0.359626E-02
     0.024     0.811   0.342959E-02
     0.024     0.819   0.326592E-02
     0.024     0.827   0.310479E-02
     0.024     0.835   0.294639E-02
     0.024     0.843   0.279030E-02
     0.024     0.850   0.263667E-02
     0.024     0.858   0.248511E-02
     0.024     0.866   0.233576E-02
     0.024     0.874   0.218825E-02
     0.024     0.882   0.204270E-02
     0.024     0.890   0.189876E-02
     0.024     0.898   0.175652E-02
     0.024     0.906   0.161568E-02
     0.024     0.913   0.147629E-02
     0.024     0.921   0.133808E-02
     0.024     0.929   0.120108E-02
     0.024     0.937   0.106503E-02
     0.024     0.945   0.929946E-03
     0.024     0.953   0.795605E-03
     0.024     0.961   0.661987E-03
     0.024     0.969   0.528897E-03
     0.024     0.976   0.396289E-03
     0.024     0.984   0.263997E-03
     0.024     0.992   0.131946E-03
     0.024     1.000    0.00000    
     0.031     0.000   0.987864E-01
     0.031     0.008   0.963267E-01
     0.031     0.016   0.939259E-01
     0.031     0.024   0.915827E-01
     0.031     0.031   0.892957E-01
     0.031     0.039   0.870635E-01
     0.031     0.047   0.848848E-01
     0.031     0.055   0.827584E-01
     0.031     0.063   0.806828E-01
     0.031     0.071   0.786571E-01
     0.031     0.079   0.766798E-01
     0.031     0.087   0.747500E-01
     0.031     0.094   0.728663E-01
     0.031     0.102   0.710279E-01
     0.031     0.110   0.692334E-01
     0.031     0.118   0.674821E-01
     0.031     0.126   0.657725E-01
     0.031     0.134   0.641041E-01
     0.031     0.142   0.624755E-01
     0.031     0.150   0.608861E-01
     0.031     0.157   0.593347E-01
     0.031     0.165   0.578206E-01
     0.031     0.173   0.563426E-01
     0.031     0.181   0.549003E-01
     0.031     0.189   0.534924E-01
     0.031     0.197   0.521184E-01
     0.031     0.205   0.507772E-01
     0.031     0.213   0.494684E-01
     0.031     0.220   0.481908E-01
     0.031     0.228   0.469441E-01
     0.031     0.236   0.457271E-01
     0.031     0.244   0.445397E-01
     0.031     0.252   0.433804E-01
     0.031     0.260   0.422493E-01
     0.031     0.268   0.411452E-01
     0.031     0.276   0.400679E-01
     0.031     0.283   0.390162E-01
     0.031     0.291   0.379901E-01
     0.031     0.299   0.369884E-01
     0.031     0.307   0.360112E-01
     0.031     0.315   0.350571E-01
     0.031     0.323   0.341265E-01
     0.031     0.331   0.332179E-01
     0.031     0.339   0.323316E-01
     0.031     0.346   0.314663E-01
     0.031     0.354   0.306222E-01
     0.031     0.362   0.297982E-01
     0.031     0.370   0.289944E-01
     0.031     0.378   0.282097E-01
     0.031     0.386   0.274443E-01
     0.031     0.394   0.266971E-01
     0.031     0.402   0.259683E-01
     0.031     0.409   0.252567E-01
     0.031     0.417   0.245627E-01
     0.031     0.425   0.238851E-01
     0.031     0.433   0.232243E-01
     0.031     0.441   0.225791E-01
     0.031     0.449   0.219499E-01
     0.031     0.457   0.213355E-01
     0.031     0.465   0.207364E-01
     0.031     0.472   0.201513E-01
     0.031     0.480   0.195808E-01
     0.031     0.488   0.190237E-01
     0.031     0.496   0.184804E-01
     0.031     0.504   0.179498E-01
     0.031     0.512   0.174325E-01
     0.031     0.520   0.169271E-01
     0.031     0.528   0.164344E-01
     0.031     0.535   0.159530E-01
     0.031     0.543   0.154836E-01
     0.031     0.551   0.150251E-01
     0.031     0.559   0.145779E-01
     0.031     0.567   0.141410E-01
     0.031     0.575   0.137149E-01
     0.031     0.583   0.132986E-01
     0.031     0.591   0.128925E-01
     0.031     0.598   0.124956E-01
     0.031     0.606   0.121084E-01
     0.031     0.614   0.117299E-01
     0.031     0.622   0.113607E-01
     0.031     0.630   0.109997E-01
     0.031     0.638   0.106474E-01
     0.031     0.646   0.103029E-01
     0.031     0.654   0.996658E-02
     0.031     0.661   0.963761E-02
     0.031     0.669   0.931643E-02
     0.031     0.677   0.900213E-02
     0.031     0.685   0.869517E-02
     0.031     0.693   0.839467E-02
     0.031     0.701   0.810109E-02
     0.031     0.709   0.781356E-02
     0.031     0.717   0.753252E-02
     0.031     0.724   0.725715E-02
     0.031     0.732   0.698785E-02
     0.031     0.740   0.672385E-02
     0.031     0.748   0.646552E-02
     0.031     0.756   0.621212E-02
     0.031     0.764   0.596400E-02
     0.031     0.772   0.572045E-02
     0.031     0.780   0.548180E-02
     0.031     0.787   0.524738E-02
     0.031     0.795   0.501749E-02
     0.031     0.803   0.479148E-02
     0.031     0.811   0.456964E-02
     0.031     0.819   0.435135E-02
     0.031     0.827   0.413687E-02
     0.031     0.835   0.392562E-02
     0.031     0.843   0.371783E-02
     0.031     0.850   0.351296E-02
     0.031     0.858   0.331120E-02
     0.031     0.866   0.311204E-02
     0.031     0.874   0.291566E-02
     0.031     0.882   0.272158E-02
     0.031     0.890   0.252994E-02
     0.031     0.898   0.234030E-02
     0.031     0.906   0.215276E-02
     0.031     0.913   0.196693E-02
     0.031     0.921   0.178288E-02
     0.031     0.929   0.160025E-02
     0.031     0.937   0.141906E-02
     0.031     0.945   0.123901E-02
     0.031     0.953   0.106008E-02
     0.031     0.961   0.881994E-03
     0.031     0.969   0.704712E-03
     0.031     0.976   0.527993E-03
     0.031     0.984   0.351754E-03
     0.031     0.992   0.175797E-03
     0.031     1.000    0.00000    
     0.039     0.000   0.123370    
     0.039     0.008   0.120298    
     0.039     0.016   0.117300    
     0.039     0.024   0.114373    
     0.039     0.031   0.111517    
     0.039     0.039   0.108729    
     0.039     0.047   0.106009    
     0.039     0.055   0.103353    
     0.039     0.063   0.100761    
     0.039     0.071   0.982310E-01
     0.039     0.079   0.957618E-01
     0.039     0.087   0.933516E-01
     0.039     0.094   0.909993E-01
     0.039     0.102   0.887033E-01
     0.039     0.110   0.864624E-01
     0.039     0.118   0.842750E-01
     0.039     0.126   0.821403E-01
     0.039     0.134   0.800565E-01
     0.039     0.142   0.780228E-01
     0.039     0.150   0.760377E-01
     0.039     0.157   0.741004E-01
     0.039     0.165   0.722093E-01
     0.039     0.173   0.703638E-01
     0.039     0.181   0.685622E-01
     0.039     0.189   0.668042E-01
     0.039     0.197   0.650880E-01
     0.039     0.205   0.634134E-01
     0.039     0.213   0.617786E-01
     0.039     0.220   0.601834E-01
     0.039     0.228   0.586261E-01
     0.039     0.236   0.571066E-01
     0.039     0.244   0.556233E-01
     0.039     0.252   0.541759E-01
     0.039     0.260   0.527630E-01
     0.039     0.268   0.513844E-01
     0.039     0.276   0.500386E-01
     0.039     0.283   0.487256E-01
     0.039     0.291   0.474438E-01
     0.039     0.299   0.461933E-01
     0.039     0.307   0.449724E-01
     0.039     0.315   0.437814E-01
     0.039     0.323   0.426187E-01
     0.039     0.331   0.414844E-01
     0.039     0.339   0.403771E-01
     0.039     0.346   0.392969E-01
     0.039     0.354   0.382424E-01
     0.039     0.362   0.372138E-01
     0.039     0.370   0.362095E-01
     0.039     0.378   0.352300E-01
     0.039     0.386   0.342737E-01
     0.039     0.394   0.333409E-01
     0.039     0.402   0.324303E-01
     0.039     0.409   0.315421E-01
     0.039     0.417   0.306750E-01
     0.039     0.425   0.298293E-01
     0.039     0.433   0.290035E-01
     0.039     0.441   0.281982E-01
     0.039     0.449   0.274120E-01
     0.039     0.457   0.266452E-01
     0.039     0.465   0.258964E-01
     0.039     0.472   0.251663E-01
     0.039     0.480   0.244533E-01
     0.039     0.488   0.237580E-01
     0.039     0.496   0.230791E-01
     0.039     0.504   0.224170E-01
     0.039     0.512   0.217703E-01
     0.039     0.520   0.211397E-01
     0.039     0.528   0.205238E-01
     0.039     0.535   0.199232E-01
     0.039     0.543   0.193365E-01
     0.039     0.551   0.187644E-01
     0.039     0.559   0.182054E-01
     0.039     0.567   0.176603E-01
     0.039     0.575   0.171277E-01
     0.039     0.583   0.166082E-01
     0.039     0.591   0.161006E-01
     0.039     0.598   0.156054E-01
     0.039     0.606   0.151214E-01
     0.039     0.614   0.146492E-01
     0.039     0.622   0.141876E-01
     0.039     0.630   0.137372E-01
     0.039     0.638   0.132968E-01
     0.039     0.646   0.128670E-01
     0.039     0.654   0.124466E-01
     0.039     0.661   0.120362E-01
     0.039     0.669   0.116346E-01
     0.039     0.677   0.112425E-01
     0.039     0.685   0.108588E-01
     0.039     0.693   0.104839E-01
     0.039     0.701   0.101169E-01
     0.039     0.709   0.975818E-02
     0.039     0.717   0.940681E-02
     0.039     0.724   0.906329E-02
     0.039     0.732   0.872661E-02
     0.039     0.740   0.839727E-02
     0.039     0.748   0.807430E-02
     0.039     0.756   0.775819E-02
     0.039     0.764   0.744799E-02
     0.039     0.772   0.714416E-02
     0.039     0.780   0.684580E-02
     0.039     0.787   0.655335E-02
     0.039     0.795   0.626595E-02
     0.039     0.803   0.598399E-02
     0.039     0.811   0.570666E-02
     0.039     0.819   0.543432E-02
     0.039     0.827   0.516621E-02
     0.039     0.835   0.490264E-02
     0.039     0.843   0.464291E-02
     0.039     0.850   0.438728E-02
     0.039     0.858   0.413509E-02
     0.039     0.866   0.388658E-02
     0.039     0.874   0.364114E-02
     0.039     0.882   0.339894E-02
     0.039     0.890   0.315944E-02
     0.039     0.898   0.292276E-02
     0.039     0.906   0.268841E-02
     0.039     0.913   0.245648E-02
     0.039     0.921   0.222650E-02
     0.039     0.929   0.199853E-02
     0.039     0.937   0.177215E-02
     0.039     0.945   0.154738E-02
     0.039     0.953   0.132384E-02
     0.039     0.961   0.110151E-02
     0.039     0.969   0.880057E-03
     0.039     0.976   0.659403E-03
     0.039     0.984   0.439277E-03
     0.039     0.992   0.219551E-03
     0.039     1.000    0.00000    
     0.047     0.000   0.147877    
     0.047     0.008   0.144195    
     0.047     0.016   0.140601    
     0.047     0.024   0.137094    
     0.047     0.031   0.133670    
     0.047     0.039   0.130329    
     0.047     0.047   0.127067    
     0.047     0.055   0.123884    
     0.047     0.063   0.120777    
     0.047     0.071   0.117745    
     0.047     0.079   0.114785    
     0.047     0.087   0.111896    
     0.047     0.094   0.109077    
     0.047     0.102   0.106325    
     0.047     0.110   0.103638    
     0.047     0.118   0.101017    
     0.047     0.126   0.984575E-01
     0.047     0.134   0.959600E-01
     0.047     0.142   0.935221E-01
     0.047     0.150   0.911429E-01
     0.047     0.157   0.888205E-01
     0.047     0.165   0.865540E-01
     0.047     0.173   0.843415E-01
     0.047     0.181   0.821825E-01
     0.047     0.189   0.800749E-01
     0.047     0.197   0.780182E-01
     0.047     0.205   0.760104E-01
     0.047     0.213   0.740513E-01
     0.047     0.220   0.721388E-01
     0.047     0.228   0.702726E-01
     0.047     0.236   0.684508E-01
     0.047     0.244   0.666732E-01
     0.047     0.252   0.649379E-01
     0.047     0.260   0.632447E-01
     0.047     0.268   0.615919E-01
     0.047     0.276   0.599792E-01
     0.047     0.283   0.584048E-01
     0.047     0.291   0.568689E-01
     0.047     0.299   0.553694E-01
     0.047     0.307   0.539066E-01
     0.047     0.315   0.524785E-01
     0.047     0.323   0.510853E-01
     0.047     0.331   0.497252E-01
     0.047     0.339   0.483984E-01
     0.047     0.346   0.471031E-01
     0.047     0.354   0.458396E-01
     0.047     0.362   0.446061E-01
     0.047     0.370   0.434029E-01
     0.047     0.378   0.422282E-01
     0.047     0.386   0.410825E-01
     0.047     0.394   0.399639E-01
     0.047     0.402   0.388729E-01
     0.047     0.409   0.378078E-01
     0.047     0.417   0.367689E-01
     0.047     0.425   0.357546E-01
     0.047     0.433   0.347654E-01
     0.047     0.441   0.337996E-01
     0.047     0.449   0.328577E-01
     0.047     0.457   0.319380E-01
     0.047     0.465   0.310412E-01
     0.047     0.472   0.301654E-01
     0.047     0.480   0.293113E-01
     0.047     0.488   0.284773E-01