Title="Temperature Data"
Variables="X","Y","T"
 
Zone I=   128, J=   128, F=POINT
     0.000     0.000    0.00000    
     0.000     0.008    0.00000    
     0.000     0.016    0.00000    
     0.000     0.024    0.00000    
     0.000     0.031    0.00000    
     0.000     0.039    0.00000    
     0.000     0.047    0.00000    
     0.000     0.055    0.00000    
     0.000     0.063    0.00000    
     0.000     0.071    0.00000    
     0.000     0.079    0.00000    
     0.000     0.087    0.00000    
     0.000     0.094    0.00000    
     0.000     0.102    0.00000    
     0.000     0.110    0.00000    
     0.000     0.118    0.00000    
     0.000     0.126    0.00000    
     0.000     0.134    0.00000    
     0.000     0.142    0.00000    
     0.000     0.150    0.00000    
     0.000     0.157    0.00000    
     0.000     0.165    0.00000    
     0.000     0.173    0.00000    
     0.000     0.181    0.00000    
     0.000     0.189    0.00000    
     0.000     0.197    0.00000    
     0.000     0.205    0.00000    
     0.000     0.213    0.00000    
     0.000     0.220    0.00000    
     0.000     0.228    0.00000    
     0.000     0.236    0.00000    
     0.000     0.244    0.00000    
     0.000     0.252    0.00000    
     0.000     0.260    0.00000    
     0.000     0.268    0.00000    
     0.000     0.276    0.00000    
     0.000     0.283    0.00000    
     0.000     0.291    0.00000    
     0.000     0.299    0.00000    
     0.000     0.307    0.00000    
     0.000     0.315    0.00000    
     0.000     0.323    0.00000    
     0.000     0.331    0.00000    
     0.000     0.339    0.00000    
     0.000     0.346    0.00000    
     0.000     0.354    0.00000    
     0.000     0.362    0.00000    
     0.000     0.370    0.00000    
     0.000     0.378    0.00000    
     0.000     0.386    0.00000    
     0.000     0.394    0.00000    
     0.000     0.402    0.00000    
     0.000     0.409    0.00000    
     0.000     0.417    0.00000    
     0.000     0.425    0.00000    
     0.000     0.433    0.00000    
     0.000     0.441    0.00000    
     0.000     0.449    0.00000    
     0.000     0.457    0.00000    
     0.000     0.465    0.00000    
     0.000     0.472    0.00000    
     0.000     0.480    0.00000    
     0.000     0.488    0.00000    
     0.000     0.496    0.00000    
     0.000     0.504    0.00000    
     0.000     0.512    0.00000    
     0.000     0.520    0.00000    
     0.000     0.528    0.00000    
     0.000     0.535    0.00000    
     0.000     0.543    0.00000    
     0.000     0.551    0.00000    
     0.000     0.559    0.00000    
     0.000     0.567    0.00000    
     0.000     0.575    0.00000    
     0.000     0.583    0.00000    
     0.000     0.591    0.00000    
     0.000     0.598    0.00000    
     0.000     0.606    0.00000    
     0.000     0.614    0.00000    
     0.000     0.622    0.00000    
     0.000     0.630    0.00000    
     0.000     0.638    0.00000    
     0.000     0.646    0.00000    
     0.000     0.654    0.00000    
     0.000     0.661    0.00000    
     0.000     0.669    0.00000    
     0.000     0.677    0.00000    
     0.000     0.685    0.00000    
     0.000     0.693    0.00000    
     0.000     0.701    0.00000    
     0.000     0.709    0.00000    
     0.000     0.717    0.00000    
     0.000     0.724    0.00000    
     0.000     0.732    0.00000    
     0.000     0.740    0.00000    
     0.000     0.748    0.00000    
     0.000     0.756    0.00000    
     0.000     0.764    0.00000    
     0.000     0.772    0.00000    
     0.000     0.780    0.00000    
     0.000     0.787    0.00000    
     0.000     0.795    0.00000    
     0.000     0.803    0.00000    
     0.000     0.811    0.00000    
     0.000     0.819    0.00000    
     0.000     0.827    0.00000    
     0.000     0.835    0.00000    
     0.000     0.843    0.00000    
     0.000     0.850    0.00000    
     0.000     0.858    0.00000    
     0.000     0.866    0.00000    
     0.000     0.874    0.00000    
     0.000     0.882    0.00000    
     0.000     0.890    0.00000    
     0.000     0.898    0.00000    
     0.000     0.906    0.00000    
     0.000     0.913    0.00000    
     0.000     0.921    0.00000    
     0.000     0.929    0.00000    
     0.000     0.937    0.00000    
     0.000     0.945    0.00000    
     0.000     0.953    0.00000    
     0.000     0.961    0.00000    
     0.000     0.969    0.00000    
     0.000     0.976    0.00000    
     0.000     0.984    0.00000    
     0.000     0.992    0.00000    
     0.000     1.000    0.00000    
     0.008     0.000   0.247344E-01
     0.008     0.008    0.00000    
     0.008     0.016    0.00000    
     0.008     0.024    0.00000    
     0.008     0.031    0.00000    
     0.008     0.039    0.00000    
     0.008     0.047    0.00000    
     0.008     0.055    0.00000    
     0.008     0.063    0.00000    
     0.008     0.071    0.00000    
     0.008     0.079    0.00000    
     0.008     0.087    0.00000    
     0.008     0.094    0.00000    
     0.008     0.102    0.00000    
     0.008     0.110    0.00000    
     0.008     0.118    0.00000    
     0.008     0.126    0.00000    
     0.008     0.134    0.00000    
     0.008     0.142    0.00000    
     0.008     0.150    0.00000    
     0.008     0.157    0.00000    
     0.008     0.165    0.00000    
     0.008     0.173    0.00000    
     0.008     0.181    0.00000    
     0.008     0.189    0.00000    
     0.008     0.197    0.00000    
     0.008     0.205    0.00000    
     0.008     0.213    0.00000    
     0.008     0.220    0.00000    
     0.008     0.228    0.00000    
     0.008     0.236    0.00000    
     0.008     0.244    0.00000    
     0.008     0.252    0.00000    
     0.008     0.260    0.00000    
     0.008     0.268    0.00000    
     0.008     0.276    0.00000    
     0.008     0.283    0.00000    
     0.008     0.291    0.00000    
     0.008     0.299    0.00000    
     0.008     0.307    0.00000    
     0.008     0.315    0.00000    
     0.008     0.323    0.00000    
     0.008     0.331    0.00000    
     0.008     0.339    0.00000    
     0.008     0.346    0.00000    
     0.008     0.354    0.00000    
     0.008     0.362    0.00000    
     0.008     0.370    0.00000    
     0.008     0.378    0.00000    
     0.008     0.386    0.00000    
     0.008     0.394    0.00000    
     0.008     0.402    0.00000    
     0.008     0.409    0.00000    
     0.008     0.417    0.00000    
     0.008     0.425    0.00000    
     0.008     0.433    0.00000    
     0.008     0.441    0.00000    
     0.008     0.449    0.00000    
     0.008     0.457    0.00000    
     0.008     0.465    0.00000    
     0.008     0.472    0.00000    
     0.008     0.480    0.00000    
     0.008     0.488    0.00000    
     0.008     0.496    0.00000    
     0.008     0.504    0.00000    
     0.008     0.512    0.00000    
     0.008     0.520    0.00000    
     0.008     0.528    0.00000    
     0.008     0.535    0.00000    
     0.008     0.543    0.00000    
     0.008     0.551    0.00000    
     0.008     0.559    0.00000    
     0.008     0.567    0.00000    
     0.008     0.575    0.00000    
     0.008     0.583    0.00000    
     0.008     0.591    0.00000    
     0.008     0.598    0.00000    
     0.008     0.606    0.00000    
     0.008     0.614    0.00000    
     0.008     0.622    0.00000    
     0.008     0.630    0.00000    
     0.008     0.638    0.00000    
     0.008     0.646    0.00000    
     0.008     0.654    0.00000    
     0.008     0.661    0.00000    
     0.008     0.669    0.00000    
     0.008     0.677    0.00000    
     0.008     0.685    0.00000    
     0.008     0.693    0.00000    
     0.008     0.701    0.00000    
     0.008     0.709    0.00000    
     0.008     0.717    0.00000    
     0.008     0.724    0.00000    
     0.008     0.732    0.00000    
     0.008     0.740    0.00000    
     0.008     0.748    0.00000    
     0.008     0.756    0.00000    
     0.008     0.764    0.00000    
     0.008     0.772    0.00000    
     0.008     0.780    0.00000    
     0.008     0.787    0.00000    
     0.008     0.795    0.00000    
     0.008     0.803    0.00000    
     0.008     0.811    0.00000    
     0.008     0.819    0.00000    
     0.008     0.827    0.00000    
     0.008     0.835    0.00000    
     0.008     0.843    0.00000    
     0.008     0.850    0.00000    
     0.008     0.858    0.00000    
     0.008     0.866    0.00000    
     0.008     0.874    0.00000    
     0.008     0.882    0.00000    
     0.008     0.890    0.00000    
     0.008     0.898    0.00000    
     0.008     0.906    0.00000    
     0.008     0.913    0.00000    
     0.008     0.921    0.00000    
     0.008     0.929    0.00000    
     0.008     0.937    0.00000    
     0.008     0.945    0.00000    
     0.008     0.953    0.00000    
     0.008     0.961    0.00000    
     0.008     0.969    0.00000    
     0.008     0.976    0.00000    
     0.008     0.984    0.00000    
     0.008     0.992    0.00000    
     0.008     1.000    0.00000    
     0.016     0.000   0.494537E-01
     0.016     0.008    0.00000    
     0.016     0.016    0.00000    
     0.016     0.024    0.00000    
     0.016     0.031    0.00000    
     0.016     0.039    0.00000    
     0.016     0.047    0.00000    
     0.016     0.055    0.00000    
     0.016     0.063    0.00000    
     0.016     0.071    0.00000    
     0.016     0.079    0.00000    
     0.016     0.087    0.00000    
     0.016     0.094    0.00000    
     0.016     0.102    0.00000    
     0.016     0.110    0.00000    
     0.016     0.118    0.00000    
     0.016     0.126    0.00000    
     0.016     0.134    0.00000    
     0.016     0.142    0.00000    
     0.016     0.150    0.00000    
     0.016     0.157    0.00000    
     0.016     0.165    0.00000    
     0.016     0.173    0.00000    
     0.016     0.181    0.00000    
     0.016     0.189    0.00000    
     0.016     0.197    0.00000    
     0.016     0.205    0.00000    
     0.016     0.213    0.00000    
     0.016     0.220    0.00000    
     0.016     0.228    0.00000    
     0.016     0.236    0.00000    
     0.016     0.244    0.00000    
     0.016     0.252    0.00000    
     0.016     0.260    0.00000    
     0.016     0.268    0.00000    
     0.016     0.276    0.00000    
     0.016     0.283    0.00000    
     0.016     0.291    0.00000    
     0.016     0.299    0.00000    
     0.016     0.307    0.00000    
     0.016     0.315    0.00000    
     0.016     0.323    0.00000    
     0.016     0.331    0.00000    
     0.016     0.339    0.00000    
     0.016     0.346    0.00000    
     0.016     0.354    0.00000    
     0.016     0.362    0.00000    
     0.016     0.370    0.00000    
     0.016     0.378    0.00000    
     0.016     0.386    0.00000    
     0.016     0.394    0.00000    
     0.016     0.402    0.00000    
     0.016     0.409    0.00000    
     0.016     0.417    0.00000    
     0.016     0.425    0.00000    
     0.016     0.433    0.00000    
     0.016     0.441    0.00000    
     0.016     0.449    0.00000    
     0.016     0.457    0.00000    
     0.016     0.465    0.00000    
     0.016     0.472    0.00000    
     0.016     0.480    0.00000    
     0.016     0.488    0.00000    
     0.016     0.496    0.00000    
     0.016     0.504    0.00000    
     0.016     0.512    0.00000    
     0.016     0.520    0.00000    
     0.016     0.528    0.00000    
     0.016     0.535    0.00000    
     0.016     0.543    0.00000    
     0.016     0.551    0.00000    
     0.016     0.559    0.00000    
     0.016     0.567    0.00000    
     0.016     0.575    0.00000    
     0.016     0.583    0.00000    
     0.016     0.591    0.00000    
     0.016     0.598    0.00000    
     0.016     0.606    0.00000    
     0.016     0.614    0.00000    
     0.016     0.622    0.00000    
     0.016     0.630    0.00000    
     0.016     0.638    0.00000    
     0.016     0.646    0.00000    
     0.016     0.654    0.00000    
     0.016     0.661    0.00000    
     0.016     0.669    0.00000    
     0.016     0.677    0.00000    
     0.016     0.685    0.00000    
     0.016     0.693    0.00000    
     0.016     0.701    0.00000    
     0.016     0.709    0.00000    
     0.016     0.717    0.00000    
     0.016     0.724    0.00000    
     0.016     0.732    0.00000    
     0.016     0.740    0.00000    
     0.016     0.748    0.00000    
     0.016     0.756    0.00000    
     0.016     0.764    0.00000    
     0.016     0.772    0.00000    
     0.016     0.780    0.00000    
     0.016     0.787    0.00000    
     0.016     0.795    0.00000    
     0.016     0.803    0.00000    
     0.016     0.811    0.00000    
     0.016     0.819    0.00000    
     0.016     0.827    0.00000    
     0.016     0.835    0.00000    
     0.016     0.843    0.00000    
     0.016     0.850    0.00000    
     0.016     0.858    0.00000    
     0.016     0.866    0.00000    
     0.016     0.874    0.00000    
     0.016     0.882    0.00000    
     0.016     0.890    0.00000    
     0.016     0.898    0.00000    
     0.016     0.906    0.00000    
     0.016     0.913    0.00000    
     0.016     0.921    0.00000    
     0.016     0.929    0.00000    
     0.016     0.937    0.00000    
     0.016     0.945    0.00000    
     0.016     0.953    0.00000    
     0.016     0.961    0.00000    
     0.016     0.969    0.00000    
     0.016     0.976    0.00000    
     0.016     0.984    0.00000    
     0.016     0.992    0.00000    
     0.016     1.000    0.00000    
     0.024     0.000   0.741428E-01
     0.024     0.008    0.00000    
     0.024     0.016    0.00000    
     0.024     0.024    0.00000    
     0.024     0.031    0.00000    
     0.024     0.039    0.00000    
     0.024     0.047    0.00000    
     0.024     0.055    0.00000    
     0.024     0.063    0.00000    
     0.024     0.071    0.00000    
     0.024     0.079    0.00000    
     0.024     0.087    0.00000    
     0.024     0.094    0.00000    
     0.024     0.102    0.00000    
     0.024     0.110    0.00000    
     0.024     0.118    0.00000    
     0.024     0.126    0.00000    
     0.024     0.134    0.00000    
     0.024     0.142    0.00000    
     0.024     0.150    0.00000    
     0.024     0.157    0.00000    
     0.024     0.165    0.00000    
     0.024     0.173    0.00000    
     0.024     0.181    0.00000    
     0.024     0.189    0.00000    
     0.024     0.197    0.00000    
     0.024     0.205    0.00000    
     0.024     0.213    0.00000    
     0.024     0.220    0.00000    
     0.024     0.228    0.00000    
     0.024     0.236    0.00000    
     0.024     0.244    0.00000    
     0.024     0.252    0.00000    
     0.024     0.260    0.00000    
     0.024     0.268    0.00000    
     0.024     0.276    0.00000    
     0.024     0.283    0.00000    
     0.024     0.291    0.00000    
     0.024     0.299    0.00000    
     0.024     0.307    0.00000    
     0.024     0.315    0.00000    
     0.024     0.323    0.00000    
     0.024     0.331    0.00000    
     0.024     0.339    0.00000    
     0.024     0.346    0.00000    
     0.024     0.354    0.00000    
     0.024     0.362    0.00000    
     0.024     0.370    0.00000    
     0.024     0.378    0.00000    
     0.024     0.386    0.00000    
     0.024     0.394    0.00000    
     0.024     0.402    0.00000    
     0.024     0.409    0.00000    
     0.024     0.417    0.00000    
     0.024     0.425    0.00000    
     0.024     0.433    0.00000    
     0.024     0.441    0.00000    
     0.024     0.449    0.00000    
     0.024     0.457    0.00000    
     0.024     0.465    0.00000    
     0.024     0.472    0.00000    
     0.024     0.480    0.00000    
     0.024     0.488    0.00000    
     0.024     0.496    0.00000    
     0.024     0.504    0.00000    
     0.024     0.512    0.00000    
     0.024     0.520    0.00000    
     0.024     0.528    0.00000    
     0.024     0.535    0.00000    
     0.024     0.543    0.00000    
     0.024     0.551    0.00000    
     0.024     0.559    0.00000    
     0.024     0.567    0.00000    
     0.024     0.575    0.00000    
     0.024     0.583    0.00000    
     0.024     0.591    0.00000    
     0.024     0.598    0.00000    
     0.024     0.606    0.00000    
     0.024     0.614    0.00000    
     0.024     0.622    0.00000    
     0.024     0.630    0.00000    
     0.024     0.638    0.00000    
     0.024     0.646    0.00000    
     0.024     0.654    0.00000    
     0.024     0.661    0.00000    
     0.024     0.669    0.00000    
     0.024     0.677    0.00000    
     0.024     0.685    0.00000    
     0.024     0.693    0.00000    
     0.024     0.701    0.00000    
     0.024     0.709    0.00000    
     0.024     0.717    0.00000    
     0.024     0.724    0.00000    
     0.024     0.732    0.00000    
     0.024     0.740    0.00000    
     0.024     0.748    0.00000    
     0.024     0.756    0.00000    
     0.024     0.764    0.00000    
     0.024     0.772    0.00000    
     0.024     0.780    0.00000    
     0.024     0.787    0.00000    
     0.024     0.795    0.00000    
     0.024     0.803    0.00000    
     0.024     0.811    0.00000    
     0.024     0.819    0.00000    
     0.024     0.827    0.00000    
     0.024     0.835    0.00000    
     0.024     0.843    0.00000    
     0.024     0.850    0.00000    
     0.024     0.858    0.00000    
     0.024     0.866    0.00000    
     0.024     0.874    0.00000    
     0.024     0.882    0.00000    
     0.024     0.890    0.00000    
     0.024     0.898    0.00000    
     0.024     0.906    0.00000    
     0.024     0.913    0.00000    
     0.024     0.921    0.00000    
     0.024     0.929    0.00000    
     0.024     0.937    0.00000    
     0.024     0.945    0.00000    
     0.024     0.953    0.00000    
     0.024     0.961    0.00000    
     0.024     0.969    0.00000    
     0.024     0.976    0.00000    
     0.024     0.984    0.00000    
     0.024     0.992    0.00000    
     0.024     1.000    0.00000    
     0.031     0.000   0.987864E-01
     0.031     0.008    0.00000    
     0.031     0.016    0.00000    
     0.031     0.024    0.00000    
     0.031     0.031    0.00000    
     0.031     0.039    0.00000    
     0.031     0.047    0.00000    
     0.031     0.055    0.00000    
     0.031     0.063    0.00000    
     0.031     0.071    0.00000    
     0.031     0.079    0.00000    
     0.031     0.087    0.00000    
     0.031     0.094    0.00000    
     0.031     0.102    0.00000    
     0.031     0.110    0.00000    
     0.031     0.118    0.00000    
     0.031     0.126    0.00000    
     0.031     0.134    0.00000    
     0.031     0.142    0.00000    
     0.031     0.150    0.00000    
     0.031     0.157    0.00000    
     0.031     0.165    0.00000    
     0.031     0.173    0.00000    
     0.031     0.181    0.00000    
     0.031     0.189    0.00000    
     0.031     0.197    0.00000    
     0.031     0.205    0.00000    
     0.031     0.213    0.00000    
     0.031     0.220    0.00000    
     0.031     0.228    0.00000    
     0.031     0.236    0.00000    
     0.031     0.244    0.00000    
     0.031     0.252    0.00000    
     0.031     0.260    0.00000    
     0.031     0.268    0.00000    
     0.031     0.276    0.00000    
     0.031     0.283    0.00000    
     0.031     0.291    0.00000    
     0.031     0.299    0.00000    
     0.031     0.307    0.00000    
     0.031     0.315    0.00000    
     0.031     0.323    0.00000    
     0.031     0.331    0.00000    
     0.031     0.339    0.00000    
     0.031     0.346    0.00000    
     0.031     0.354    0.00000    
     0.031     0.362    0.00000    
     0.031     0.370    0.00000    
     0.031     0.378    0.00000    
     0.031     0.386    0.00000    
     0.031     0.394    0.00000    
     0.031     0.402    0.00000    
     0.031     0.409    0.00000    
     0.031     0.417    0.00000    
     0.031     0.425    0.00000    
     0.031     0.433    0.00000    
     0.031     0.441    0.00000    
     0.031     0.449    0.00000    
     0.031     0.457    0.00000    
     0.031     0.465    0.00000    
     0.031     0.472    0.00000    
     0.031     0.480    0.00000    
     0.031     0.488    0.00000    
     0.031     0.496    0.00000    
     0.031     0.504    0.00000    
     0.031     0.512    0.00000    
     0.031     0.520    0.00000    
     0.031     0.528    0.00000    
     0.031     0.535    0.00000    
     0.031     0.543    0.00000    
     0.031     0.551    0.00000    
     0.031     0.559    0.00000    
     0.031     0.567    0.00000    
     0.031     0.575    0.00000    
     0.031     0.583    0.00000    
     0.031     0.591    0.00000    
     0.031     0.598    0.00000    
     0.031     0.606    0.00000    
     0.031     0.614    0.00000    
     0.031     0.622    0.00000    
     0.031     0.630    0.00000    
     0.031     0.638    0.00000    
     0.031     0.646    0.00000    
     0.031     0.654    0.00000    
     0.031     0.661    0.00000    
     0.031     0.669    0.00000    
     0.031     0.677    0.00000    
     0.031     0.685    0.00000    
     0.031     0.693    0.00000    
     0.031     0.701    0.00000    
     0.031     0.709    0.00000    
     0.031     0.717    0.00000    
     0.031     0.724    0.00000    
     0.031     0.732    0.00000    
     0.031     0.740    0.00000    
     0.031     0.748    0.00000    
     0.031     0.756    0.00000    
     0.031     0.764    0.00000    
     0.031     0.772    0.00000    
     0.031     0.780    0.00000    
     0.031     0.787    0.00000    
     0.031     0.795    0.00000    
     0.031     0.803    0.00000    
     0.031     0.811    0.00000    
     0.031     0.819    0.00000    
     0.031     0.827    0.00000    
     0.031     0.835    0.00000    
     0.031     0.843    0.00000    
     0.031     0.850    0.00000    
     0.031     0.858    0.00000    
     0.031     0.866    0.00000    
     0.031     0.874    0.00000    
     0.031     0.882    0.00000    
     0.031     0.890    0.00000    
     0.031     0.898    0.00000    
     0.031     0.906    0.00000    
     0.031     0.913    0.00000    
     0.031     0.921    0.00000    
     0.031     0.929    0.00000    
     0.031     0.937    0.00000    
     0.031     0.945    0.00000    
     0.031     0.953    0.00000    
     0.031     0.961    0.00000    
     0.031     0.969    0.00000    
     0.031     0.976    0.00000    
     0.031     0.984    0.00000    
     0.031     0.992    0.00000    
     0.031     1.000    0.00000    
     0.039     0.000   0.123370    
     0.039     0.008    0.00000    
     0.039     0.016    0.00000    
     0.039     0.024    0.00000    
     0.039     0.031    0.00000    
     0.039     0.039    0.00000    
     0.039     0.047    0.00000    
     0.039     0.055    0.00000    
     0.039     0.063    0.00000    
     0.039     0.071    0.00000    
     0.039     0.079    0.00000    
     0.039     0.087    0.00000    
     0.039     0.094    0.00000    
     0.039     0.102    0.00000    
     0.039     0.110    0.00000    
     0.039     0.118    0.00000    
     0.039     0.126    0.00000    
     0.039     0.134    0.00000    
     0.039     0.142    0.00000    
     0.039     0.150    0.00000    
     0.039     0.157    0.00000    
     0.039     0.165    0.00000    
     0.039     0.173    0.00000    
     0.039     0.181    0.00000    
     0.039     0.189    0.00000    
     0.039     0.197    0.00000    
     0.039     0.205    0.00000    
     0.039     0.213    0.00000    
     0.039     0.220    0.00000    
     0.039     0.228    0.00000    
     0.039     0.236    0.00000    
     0.039     0.244    0.00000    
     0.039     0.252    0.00000    
     0.039     0.260    0.00000    
     0.039     0.268    0.00000    
     0.039     0.276    0.00000    
     0.039     0.283    0.00000    
     0.039     0.291    0.00000    
     0.039     0.299    0.00000    
     0.039     0.307    0.00000    
     0.039     0.315    0.00000    
     0.039     0.323    0.00000    
     0.039     0.331    0.00000    
     0.039     0.339    0.00000    
     0.039     0.346    0.00000    
     0.039     0.354    0.00000    
     0.039     0.362    0.00000    
     0.039     0.370    0.00000    
     0.039     0.378    0.00000    
     0.039     0.386    0.00000    
     0.039     0.394    0.00000    
     0.039     0.402    0.00000    
     0.039     0.409    0.00000    
     0.039     0.417    0.00000    
     0.039     0.425    0.00000    
     0.039     0.433    0.00000    
     0.039     0.441    0.00000    
     0.039     0.449    0.00000    
     0.039     0.457    0.00000    
     0.039     0.465    0.00000    
     0.039     0.472    0.00000    
     0.039     0.480    0.00000    
     0.039     0.488    0.00000    
     0.039     0.496    0.00000    
     0.039     0.504    0.00000    
     0.039     0.512    0.00000    
     0.039     0.520    0.00000    
     0.039     0.528    0.00000    
     0.039     0.535    0.00000    
     0.039     0.543    0.00000    
     0.039     0.551    0.00000    
     0.039     0.559    0.00000    
     0.039     0.567    0.00000    
     0.039     0.575    0.00000    
     0.039     0.583    0.00000    
     0.039     0.591    0.00000    
     0.039     0.598    0.00000    
     0.039     0.606    0.00000    
     0.039     0.614    0.00000    
     0.039     0.622    0.00000    
     0.039     0.630    0.00000    
     0.039     0.638    0.00000    
     0.039     0.646    0.00000    
     0.039     0.654    0.00000    
     0.039     0.661    0.00000    
     0.039     0.669    0.00000    
     0.039     0.677    0.00000    
     0.039     0.685    0.00000    
     0.039     0.693    0.00000    
     0.039     0.701    0.00000    
     0.039     0.709    0.00000    
     0.039     0.717    0.00000    
     0.039     0.724    0.00000    
     0.039     0.732    0.00000    
     0.039     0.740    0.00000    
     0.039     0.748    0.00000    
     0.039     0.756    0.00000    
     0.039     0.764    0.00000    
     0.039     0.772    0.00000    
     0.039     0.780    0.00000    
     0.039     0.787    0.00000    
     0.039     0.795    0.00000    
     0.039     0.803    0.00000    
     0.039     0.811    0.00000    
     0.039     0.819    0.00000    
     0.039     0.827    0.00000    
     0.039     0.835    0.00000    
     0.039     0.843    0.00000    
     0.039     0.850    0.00000    
     0.039     0.858    0.00000    
     0.039     0.866    0.00000    
     0.039     0.874    0.00000    
     0.039     0.882    0.00000    
     0.039     0.890    0.00000    
     0.039     0.898    0.00000    
     0.039     0.906    0.00000    
     0.039     0.913    0.00000    
     0.039     0.921    0.00000    
     0.039     0.929    0.00000    
     0.039     0.937    0.00000    
     0.039     0.945    0.00000    
     0.039     0.953    0.00000    
     0.039     0.961    0.00000    
     0.039     0.969    0.00000    
     0.039     0.976    0.00000    
     0.039     0.984    0.00000    
     0.039     0.992    0.00000    
     0.039     1.000    0.00000    
     0.047     0.000   0.147877    
     0.047     0.008    0.00000    
     0.047     0.016    0.00000    
     0.047     0.024    0.00000    
     0.047     0.031    0.00000    
     0.047     0.039    0.00000    
     0.047     0.047    0.00000    
     0.047     0.055    0.00000    
     0.047     0.063    0.00000    
     0.047     0.071    0.00000    
     0.047     0.079    0.00000    
     0.047     0.087    0.00000    
     0.047     0.094    0.00000    
     0.047     0.102    0.00000    
     0.047     0.110    0.00000    
     0.047     0.118    0.00000    
     0.047     0.126    0.00000    
     0.047     0.134    0.00000    
     0.047     0.142    0.00000    
     0.047     0.150    0.00000    
     0.047     0.157    0.00000    
     0.047     0.165    0.00000    
     0.047     0.173    0.00000    
     0.047     0.181    0.00000    
     0.047     0.189    0.00000    
     0.047     0.197    0.00000    
     0.047     0.205    0.00000    
     0.047     0.213    0.00000    
     0.047     0.220    0.00000    
     0.047     0.228    0.00000    
     0.047     0.236    0.00000    
     0.047     0.244    0.00000    
     0.047     0.252    0.00000    
     0.047     0.260    0.00000    
     0.047     0.268    0.00000    
     0.047     0.276    0.00000    
     0.047     0.283    0.00000    
     0.047     0.291    0.00000    
     0.047     0.299    0.00000    
     0.047     0.307    0.00000    
     0.047     0.315    0.00000    
     0.047     0.323    0.00000    
     0.047     0.331    0.00000    
     0.047     0.339    0.00000    
     0.047     0.346    0.00000    
     0.047     0.354    0.00000    
     0.047     0.362    0.00000    
     0.047     0.370    0.00000    
     0.047     0.378    0.00000    
     0.047     0.386    0.00000    
     0.047     0.394    0.00000    
     0.047     0.402    0.00000    
     0.047     0.409    0.00000    
     0.047     0.417    0.00000    
     0.047     0.425    0.00000    
     0.047     0.433    0.00000    
     0.047     0.441    0.00000    
     0.047     0.449    0.00000    
     0.047     0.457    0.00000    
     0.047     0.465    0.00000    
     0.047     0.472    0.00000    
     0.047     0.480    0.00000    
     0.047     0.488    0.00000    