Title="Temperature Data"
Variables="X","Y","T"
 
Zone I=    64, J=    64, F=POINT
     0.000     0.000    0.00000    
     0.000     0.016    0.00000    
     0.000     0.032    0.00000    
     0.000     0.048    0.00000    
     0.000     0.063    0.00000    
     0.000     0.079    0.00000    
     0.000     0.095    0.00000    
     0.000     0.111    0.00000    
     0.000     0.127    0.00000    
     0.000     0.143    0.00000    
     0.000     0.159    0.00000    
     0.000     0.175    0.00000    
     0.000     0.190    0.00000    
     0.000     0.206    0.00000    
     0.000     0.222    0.00000    
     0.000     0.238    0.00000    
     0.000     0.254    0.00000    
     0.000     0.270    0.00000    
     0.000     0.286    0.00000    
     0.000     0.302    0.00000    
     0.000     0.317    0.00000    
     0.000     0.333    0.00000    
     0.000     0.349    0.00000    
     0.000     0.365    0.00000    
     0.000     0.381    0.00000    
     0.000     0.397    0.00000    
     0.000     0.413    0.00000    
     0.000     0.429    0.00000    
     0.000     0.444    0.00000    
     0.000     0.460    0.00000    
     0.000     0.476    0.00000    
     0.000     0.492    0.00000    
     0.000     0.508    0.00000    
     0.000     0.524    0.00000    
     0.000     0.540    0.00000    
     0.000     0.556    0.00000    
     0.000     0.571    0.00000    
     0.000     0.587    0.00000    
     0.000     0.603    0.00000    
     0.000     0.619    0.00000    
     0.000     0.635    0.00000    
     0.000     0.651    0.00000    
     0.000     0.667    0.00000    
     0.000     0.683    0.00000    
     0.000     0.698    0.00000    
     0.000     0.714    0.00000    
     0.000     0.730    0.00000    
     0.000     0.746    0.00000    
     0.000     0.762    0.00000    
     0.000     0.778    0.00000    
     0.000     0.794    0.00000    
     0.000     0.810    0.00000    
     0.000     0.825    0.00000    
     0.000     0.841    0.00000    
     0.000     0.857    0.00000    
     0.000     0.873    0.00000    
     0.000     0.889    0.00000    
     0.000     0.905    0.00000    
     0.000     0.921    0.00000    
     0.000     0.937    0.00000    
     0.000     0.952    0.00000    
     0.000     0.968    0.00000    
     0.000     0.984    0.00000    
     0.000     1.000    0.00000    
     0.016     0.000   0.498459E-01
     0.016     0.016   0.388208E-01
     0.016     0.032   0.286895E-01
     0.016     0.048   0.200488E-01
     0.016     0.063   0.132126E-01
     0.016     0.079   0.819488E-02
     0.016     0.095   0.477680E-02
     0.016     0.111   0.261436E-02
     0.016     0.127   0.134277E-02
     0.016     0.143   0.647071E-03
     0.016     0.159   0.292574E-03
     0.016     0.175   0.124152E-03
     0.016     0.190   0.494616E-04
     0.016     0.206   0.185090E-04
     0.016     0.222   0.650921E-05
     0.016     0.238   0.215257E-05
     0.016     0.254   0.669773E-06
     0.016     0.270   0.196198E-06
     0.016     0.286   0.541395E-07
     0.016     0.302   0.140808E-07
     0.016     0.317   0.345349E-08
     0.016     0.333   0.799139E-09
     0.016     0.349   0.174546E-09
     0.016     0.365   0.359994E-10
     0.016     0.381   0.701331E-11
     0.016     0.397   0.129098E-11
     0.016     0.413   0.224589E-12
     0.016     0.429   0.369319E-13
     0.016     0.444   0.574127E-14
     0.016     0.460   0.843779E-15
     0.016     0.476   0.117235E-15
     0.016     0.492   0.153976E-16
     0.016     0.508   0.191140E-17
     0.016     0.524   0.224209E-18
     0.016     0.540   0.248441E-19
     0.016     0.556   0.259952E-20
     0.016     0.571   0.256718E-21
     0.016     0.587   0.239148E-22
     0.016     0.603   0.210009E-23
     0.016     0.619   0.173712E-24
     0.016     0.635   0.135227E-25
     0.016     0.651   0.989684E-27
     0.016     0.667   0.680191E-28
     0.016     0.683   0.438430E-29
     0.016     0.698   0.264647E-30
     0.016     0.714   0.149351E-31
     0.016     0.730   0.786519E-33
     0.016     0.746   0.385697E-34
     0.016     0.762   0.175701E-35
     0.016     0.778   0.741490E-37
     0.016     0.794   0.288989E-38
     0.016     0.810   0.103644E-39
     0.016     0.825   0.340647E-41
     0.016     0.841   0.102110E-42
     0.016     0.857   0.277585E-44
     0.016     0.873   0.679801E-46
     0.016     0.889   0.148781E-47
     0.016     0.905   0.288167E-49
     0.016     0.921   0.487971E-51
     0.016     0.937   0.711327E-53
     0.016     0.952   0.874629E-55
     0.016     0.968   0.882122E-57
     0.016     0.984   0.700725E-59
     0.016     1.000    0.00000    
     0.032     0.000   0.995678E-01
     0.032     0.016   0.775452E-01
     0.032     0.032   0.573077E-01
     0.032     0.048   0.400478E-01
     0.032     0.063   0.263923E-01
     0.032     0.079   0.163694E-01
     0.032     0.095   0.954172E-02
     0.032     0.111   0.522223E-02
     0.032     0.127   0.268220E-02
     0.032     0.143   0.129253E-02
     0.032     0.159   0.584421E-03
     0.032     0.175   0.247996E-03
     0.032     0.190   0.988003E-04
     0.032     0.206   0.369719E-04
     0.032     0.222   0.130022E-04
     0.032     0.238   0.429979E-05
     0.032     0.254   0.133788E-05
     0.032     0.270   0.391909E-06
     0.032     0.286   0.108144E-06
     0.032     0.302   0.281265E-07
     0.032     0.317   0.689839E-08
     0.032     0.333   0.159629E-08
     0.032     0.349   0.348659E-09
     0.032     0.365   0.719092E-10
     0.032     0.381   0.140092E-10
     0.032     0.397   0.257876E-11
     0.032     0.413   0.448620E-12
     0.032     0.429   0.737719E-13
     0.032     0.444   0.114683E-13
     0.032     0.460   0.168546E-14
     0.032     0.476   0.234178E-15
     0.032     0.492   0.307569E-16
     0.032     0.508   0.381805E-17
     0.032     0.524   0.447861E-18
     0.032     0.540   0.496264E-19
     0.032     0.556   0.519258E-20
     0.032     0.571   0.512798E-21
     0.032     0.587   0.477702E-22
     0.032     0.603   0.419495E-23
     0.032     0.619   0.346993E-24
     0.032     0.635   0.270118E-25
     0.032     0.651   0.197691E-26
     0.032     0.667   0.135869E-27
     0.032     0.683   0.875770E-29
     0.032     0.698   0.528636E-30
     0.032     0.714   0.298331E-31
     0.032     0.730   0.157108E-32
     0.032     0.746   0.770435E-34
     0.032     0.762   0.350966E-35
     0.032     0.778   0.148114E-36
     0.032     0.794   0.577259E-38
     0.032     0.810   0.207031E-39
     0.032     0.825   0.680446E-41
     0.032     0.841   0.203967E-42
     0.032     0.857   0.554480E-44
     0.032     0.873   0.135791E-45
     0.032     0.889   0.297191E-47
     0.032     0.905   0.575617E-49
     0.032     0.921   0.974728E-51
     0.032     0.937   0.142089E-52
     0.032     0.952   0.174708E-54
     0.032     0.968   0.176205E-56
     0.032     0.984   0.139971E-58
     0.032     1.000    0.00000    
     0.048     0.000   0.149042    
     0.048     0.016   0.116077    
     0.048     0.032   0.857834E-01
     0.048     0.048   0.599472E-01
     0.048     0.063   0.395064E-01
     0.048     0.079   0.245032E-01
     0.048     0.095   0.142829E-01
     0.048     0.111   0.781711E-02
     0.048     0.127   0.401496E-02
     0.048     0.143   0.193478E-02
     0.048     0.159   0.874815E-03
     0.048     0.175   0.371223E-03
     0.048     0.190   0.147893E-03
     0.048     0.206   0.553429E-04
     0.048     0.222   0.194629E-04
     0.048     0.238   0.643632E-05
     0.048     0.254   0.200266E-05
     0.048     0.270   0.586645E-06
     0.048     0.286   0.161881E-06
     0.048     0.302   0.421023E-07
     0.048     0.317   0.103261E-07
     0.048     0.333   0.238948E-08
     0.048     0.349   0.521904E-09
     0.048     0.365   0.107640E-09
     0.048     0.381   0.209702E-10
     0.048     0.397   0.386012E-11
     0.048     0.413   0.671535E-12
     0.048     0.429   0.110429E-12
     0.048     0.444   0.171667E-13
     0.048     0.460   0.252295E-14
     0.048     0.476   0.350539E-15
     0.048     0.492   0.460398E-16
     0.048     0.508   0.571521E-17
     0.048     0.524   0.670399E-18
     0.048     0.540   0.742854E-19
     0.048     0.556   0.777272E-20
     0.048     0.571   0.767603E-21
     0.048     0.587   0.715068E-22
     0.048     0.603   0.627939E-23
     0.048     0.619   0.519411E-24
     0.048     0.635   0.404337E-25
     0.048     0.651   0.295922E-26
     0.048     0.667   0.203381E-27
     0.048     0.683   0.131093E-28
     0.048     0.698   0.791311E-30
     0.048     0.714   0.446569E-31
     0.048     0.730   0.235174E-32
     0.048     0.746   0.115326E-33
     0.048     0.762   0.525357E-35
     0.048     0.778   0.221710E-36
     0.048     0.794   0.864094E-38
     0.048     0.810   0.309903E-39
     0.048     0.825   0.101855E-40
     0.048     0.841   0.305316E-42
     0.048     0.857   0.829996E-44
     0.048     0.873   0.203265E-45
     0.048     0.889   0.444863E-47
     0.048     0.905   0.861636E-49
     0.048     0.921   0.145906E-50
     0.048     0.937   0.212691E-52
     0.048     0.952   0.261519E-54
     0.048     0.968   0.263760E-56
     0.048     0.984   0.209521E-58
     0.048     1.000    0.00000    
     0.063     0.000   0.198146    
     0.063     0.016   0.154320    
     0.063     0.032   0.114046    
     0.063     0.048   0.796976E-01
     0.063     0.063   0.525223E-01
     0.063     0.079   0.325761E-01
     0.063     0.095   0.189886E-01
     0.063     0.111   0.103926E-01
     0.063     0.127   0.533774E-02
     0.063     0.143   0.257222E-02
     0.063     0.159   0.116303E-02
     0.063     0.175   0.493527E-03
     0.063     0.190   0.196619E-03
     0.063     0.206   0.735764E-04
     0.063     0.222   0.258753E-04
     0.063     0.238   0.855685E-05
     0.063     0.254   0.266246E-05
     0.063     0.270   0.779923E-06
     0.063     0.286   0.215214E-06
     0.063     0.302   0.559735E-07
     0.063     0.317   0.137282E-07
     0.063     0.333   0.317672E-08
     0.063     0.349   0.693853E-09
     0.063     0.365   0.143104E-09
     0.063     0.381   0.278791E-10
     0.063     0.397   0.513189E-11
     0.063     0.413   0.892781E-12
     0.063     0.429   0.146811E-12
     0.063     0.444   0.228225E-13
     0.063     0.460   0.335417E-14
     0.063     0.476   0.466028E-15
     0.063     0.492   0.612082E-16
     0.063     0.508   0.759816E-17
     0.063     0.524   0.891271E-18
     0.063     0.540   0.987597E-19
     0.063     0.556   0.103335E-19
     0.063     0.571   0.102050E-20
     0.063     0.587   0.950657E-22
     0.063     0.603   0.834821E-23
     0.063     0.619   0.690537E-24
     0.063     0.635   0.537551E-25
     0.063     0.651   0.393417E-26
     0.063     0.667   0.270388E-27
     0.063     0.683   0.174284E-28
     0.063     0.698   0.105202E-29
     0.063     0.714   0.593697E-31
     0.063     0.730   0.312655E-32
     0.063     0.746   0.153321E-33
     0.063     0.762   0.698443E-35
     0.063     0.778   0.294755E-36
     0.063     0.794   0.114878E-37
     0.063     0.810   0.412004E-39
     0.063     0.825   0.135413E-40
     0.063     0.841   0.405907E-42
     0.063     0.857   0.110345E-43
     0.063     0.873   0.270233E-45
     0.063     0.889   0.591429E-47
     0.063     0.905   0.114551E-48
     0.063     0.921   0.193977E-50
     0.063     0.937   0.282765E-52
     0.063     0.952   0.347680E-54
     0.063     0.968   0.350659E-56
     0.063     0.984   0.278550E-58
     0.063     1.000    0.00000    
     0.079     0.000   0.246757    
     0.079     0.016   0.192179    
     0.079     0.032   0.142025    
     0.079     0.048   0.992499E-01
     0.079     0.063   0.654076E-01
     0.079     0.079   0.405680E-01
     0.079     0.095   0.236471E-01
     0.079     0.111   0.129422E-01
     0.079     0.127   0.664725E-02
     0.079     0.143   0.320326E-02
     0.079     0.159   0.144836E-02
     0.079     0.175   0.614604E-03
     0.079     0.190   0.244855E-03
     0.079     0.206   0.916269E-04
     0.079     0.222   0.322233E-04
     0.079     0.238   0.106561E-04
     0.079     0.254   0.331565E-05
     0.079     0.270   0.971262E-06
     0.079     0.286   0.268013E-06
     0.079     0.302   0.697055E-07
     0.079     0.317   0.170962E-07
     0.079     0.333   0.395606E-08
     0.079     0.349   0.864076E-09
     0.079     0.365   0.178211E-09
     0.079     0.381   0.347187E-10
     0.079     0.397   0.639089E-11
     0.079     0.413   0.111181E-11
     0.079     0.429   0.182828E-12
     0.079     0.444   0.284216E-13
     0.079     0.460   0.417705E-14
     0.079     0.476   0.580359E-15
     0.079     0.492   0.762244E-16
     0.079     0.508   0.946222E-17
     0.079     0.524   0.110993E-17
     0.079     0.540   0.122988E-18
     0.079     0.556   0.128687E-19
     0.079     0.571   0.127086E-20
     0.079     0.587   0.118388E-21
     0.079     0.603   0.103963E-22
     0.079     0.619   0.859947E-24
     0.079     0.635   0.669429E-25
     0.079     0.651   0.489934E-26
     0.079     0.667   0.336722E-27
     0.079     0.683   0.217041E-28
     0.079     0.698   0.131011E-29
     0.079     0.714   0.739348E-31
     0.079     0.730   0.389359E-32
     0.079     0.746   0.190936E-33
     0.079     0.762   0.869792E-35
     0.079     0.778   0.367067E-36
     0.079     0.794   0.143061E-37
     0.079     0.810   0.513081E-39
     0.079     0.825   0.168634E-40
     0.079     0.841   0.505488E-42
     0.079     0.857   0.137416E-43
     0.079     0.873   0.336529E-45
     0.079     0.889   0.736525E-47
     0.079     0.905   0.142654E-48
     0.079     0.921   0.241565E-50
     0.079     0.937   0.352136E-52
     0.079     0.952   0.432977E-54
     0.079     0.968   0.436686E-56
     0.079     0.984   0.346887E-58
     0.079     1.000    0.00000    
     0.095     0.000   0.294755    
     0.095     0.016   0.229560    
     0.095     0.032   0.169650    
     0.095     0.048   0.118555    
     0.095     0.063   0.781303E-01
     0.095     0.079   0.484590E-01
     0.095     0.095   0.282468E-01
     0.095     0.111   0.154596E-01
     0.095     0.127   0.794023E-02
     0.095     0.143   0.382634E-02
     0.095     0.159   0.173009E-02
     0.095     0.175   0.734153E-03
     0.095     0.190   0.292483E-03
     0.095     0.206   0.109450E-03
     0.095     0.222   0.384911E-04
     0.095     0.238   0.127289E-04
     0.095     0.254   0.396059E-05
     0.095     0.270   0.116019E-05
     0.095     0.286   0.320145E-06
     0.095     0.302   0.832641E-07
     0.095     0.317   0.204216E-07
     0.095     0.333   0.472557E-08
     0.095     0.349   0.103215E-08
     0.095     0.365   0.212876E-09
     0.095     0.381   0.414720E-10
     0.095     0.397   0.763401E-11
     0.095     0.413   0.132807E-11
     0.095     0.429   0.218390E-12
     0.095     0.444   0.339500E-13
     0.095     0.460   0.498954E-14
     0.095     0.476   0.693247E-15
     0.095     0.492   0.910511E-16
     0.095     0.508   0.113028E-16
     0.095     0.524   0.132582E-17
     0.095     0.540   0.146911E-18
     0.095     0.556   0.153718E-19
     0.095     0.571   0.151806E-20
     0.095     0.587   0.141416E-21
     0.095     0.603   0.124185E-22
     0.095     0.619   0.102722E-23
     0.095     0.635   0.799642E-25
     0.095     0.651   0.585233E-26
     0.095     0.667   0.402219E-27
     0.095     0.683   0.259258E-28
     0.095     0.698   0.156494E-29
     0.095     0.714   0.883162E-31
     0.095     0.730   0.465094E-32
     0.095     0.746   0.228075E-33
     0.095     0.762   0.103898E-34
     0.095     0.778   0.438467E-36
     0.095     0.794   0.170888E-37
     0.095     0.810   0.612883E-39
     0.095     0.825   0.201436E-40
     0.095     0.841   0.603812E-42
     0.095     0.857   0.164145E-43
     0.095     0.873   0.401989E-45
     0.095     0.889   0.879789E-47
     0.095     0.905   0.170402E-48
     0.095     0.921   0.288553E-50
     0.095     0.937   0.420631E-52
     0.095     0.952   0.517197E-54
     0.095     0.968   0.521628E-56
     0.095     0.984   0.414362E-58
     0.095     1.000    0.00000    
     0.111     0.000   0.342020    
     0.111     0.016   0.266371    
     0.111     0.032   0.196854    
     0.111     0.048   0.137566    
     0.111     0.063   0.906588E-01
     0.111     0.079   0.562296E-01
     0.111     0.095   0.327762E-01
     0.111     0.111   0.179386E-01
     0.111     0.127   0.921347E-02
     0.111     0.143   0.443991E-02
     0.111     0.159   0.200751E-02
     0.111     0.175   0.851877E-03
     0.111     0.190   0.339384E-03
     0.111     0.206   0.127000E-03
     0.111     0.222   0.446633E-04
     0.111     0.238   0.147700E-04
     0.111     0.254   0.459568E-05
     0.111     0.270   0.134623E-05
     0.111     0.286   0.371481E-06
     0.111     0.302   0.966158E-07
     0.111     0.317   0.236963E-07
     0.111     0.333   0.548334E-08
     0.111     0.349   0.119766E-08
     0.111     0.365   0.247011E-09
     0.111     0.381   0.481222E-10
     0.111     0.397   0.885815E-11
     0.111     0.413   0.154103E-11
     0.111     0.429   0.253410E-12
     0.111     0.444   0.393940E-13
     0.111     0.460   0.578963E-14
     0.111     0.476   0.804412E-15
     0.111     0.492   0.105651E-15
     0.111     0.508   0.131152E-16
     0.111     0.524   0.153842E-17
     0.111     0.540   0.170469E-18
     0.111     0.556   0.178367E-19
     0.111     0.571   0.176148E-20
     0.111     0.587   0.164093E-21
     0.111     0.603   0.144099E-22
     0.111     0.619   0.119194E-23
     0.111     0.635   0.927868E-25
     0.111     0.651   0.679077E-26
     0.111     0.667   0.466716E-27
     0.111     0.683   0.300831E-28
     0.111     0.698   0.181589E-29
     0.111     0.714   0.102478E-30
     0.111     0.730   0.539674E-32
     0.111     0.746   0.264648E-33
     0.111     0.762   0.120558E-34
     0.111     0.778   0.508777E-36
     0.111     0.794   0.198291E-37
     0.111     0.810   0.711161E-39
     0.111     0.825   0.233736E-40
     0.111     0.841   0.700636E-42
     0.111     0.857   0.190466E-43
     0.111     0.873   0.466449E-45
     0.111     0.889   0.102087E-46
     0.111     0.905   0.197727E-48
     0.111     0.921   0.334824E-50
     0.111     0.937   0.488081E-52
     0.111     0.952   0.600131E-54
     0.111     0.968   0.605273E-56
     0.111     0.984   0.480806E-58
     0.111     1.000    0.00000    
     0.127     0.000   0.388435    
     0.127     0.016   0.302520    
     0.127     0.032   0.223569    
     0.127     0.048   0.156235    
     0.127     0.063   0.102962    
     0.127     0.079   0.638604E-01
     0.127     0.095   0.372242E-01
     0.127     0.111   0.203730E-01
     0.127     0.127   0.104638E-01
     0.127     0.143   0.504244E-02
     0.127     0.159   0.227995E-02
     0.127     0.175   0.967483E-03
     0.127     0.190   0.385440E-03
     0.127     0.206   0.144235E-03
     0.127     0.222   0.507244E-04
     0.127     0.238   0.167744E-04
     0.127     0.254   0.521935E-05
     0.127     0.270   0.152892E-05
     0.127     0.286   0.421894E-06
     0.127     0.302   0.109727E-06
     0.127     0.317   0.269121E-07
     0.127     0.333   0.622746E-08
     0.127     0.349   0.136019E-08
     0.127     0.365   0.280533E-09
     0.127     0.381   0.546527E-10
     0.127     0.397   0.100603E-10
     0.127     0.413   0.175016E-11
     0.127     0.429   0.287800E-12
     0.127     0.444   0.447401E-13
     0.127     0.460   0.657533E-14
     0.127     0.476   0.913576E-15
     0.127     0.492   0.119989E-15
     0.127     0.508   0.148950E-16
     0.127     0.524   0.174720E-17
     0.127     0.540   0.193603E-18
     0.127     0.556   0.202573E-19
     0.127     0.571   0.200053E-20
     0.127     0.587   0.186362E-21
     0.127     0.603   0.163654E-22
     0.127     0.619   0.135369E-23
     0.127     0.635   0.105379E-24
     0.127     0.651   0.771233E-26
     0.127     0.667   0.530053E-27
     0.127     0.683   0.341656E-28
     0.127     0.698   0.206232E-29
     0.127     0.714   0.116385E-30
     0.127     0.730   0.612912E-32
     0.127     0.746   0.300563E-33
     0.127     0.762   0.136919E-34
     0.127     0.778   0.577822E-36
     0.127     0.794   0.225201E-37
     0.127     0.810   0.807671E-39
     0.127     0.825   0.265456E-40
     0.127     0.841   0.795717E-42
     0.127     0.857   0.216314E-43
     0.127     0.873   0.529750E-45
     0.127     0.889   0.115941E-46
     0.127     0.905   0.224560E-48
     0.127     0.921   0.380262E-50
     0.127     0.937   0.554317E-52
     0.127     0.952   0.681574E-54
     0.127     0.968   0.687413E-56
     0.127     0.984   0.546055E-58
     0.127     1.000    0.00000    
     0.143     0.000   0.433884    
     0.143     0.016   0.337916    
     0.143     0.032   0.249728    
     0.143     0.048   0.174515    
     0.143     0.063   0.115009    
     0.143     0.079   0.713324E-01
     0.143     0.095   0.415797E-01
     0.143     0.111   0.227567E-01
     0.143     0.127   0.116881E-01
     0.143     0.143   0.563243E-02
     0.143     0.159   0.254671E-02
     0.143     0.175   0.108068E-02
     0.143     0.190   0.430539E-03
     0.143     0.206   0.161111E-03
     0.143     0.222   0.566595E-04
     0.143     0.238   0.187371E-04
     0.143     0.254   0.583004E-05
     0.143     0.270   0.170781E-05
     0.143     0.286   0.471258E-06
     0.143     0.302   0.122566E-06
     0.143     0.317   0.300609E-07
     0.143     0.333   0.695611E-08
     0.143     0.349   0.151934E-08
     0.143     0.365   0.313357E-09
     0.143     0.381   0.610474E-10
     0.143     0.397   0.112374E-10
     0.143     0.413   0.195494E-11
     0.143     0.429   0.321474E-12
     0.143     0.444   0.499749E-13
     0.143     0.460   0.734467E-14
     0.143     0.476   0.102047E-14
     0.143     0.492   0.134029E-15
     0.143     0.508   0.166378E-16
     0.143     0.524   0.195163E-17
     0.143     0.540   0.216256E-18
     0.143     0.556   0.226275E-19
     0.143     0.571   0.223460E-20
     0.143     0.587   0.208167E-21
     0.143     0.603   0.182802E-22
     0.143     0.619   0.151208E-23
     0.143     0.635   0.117708E-24
     0.143     0.651   0.861471E-26
     0.143     0.667   0.592072E-27
     0.143     0.683   0.381632E-28
     0.143     0.698   0.230362E-29
     0.143     0.714   0.130003E-30
     0.143     0.730   0.684625E-32
     0.143     0.746   0.335730E-33
     0.143     0.762   0.152939E-34
     0.143     0.778   0.645430E-36
     0.143     0.794   0.251550E-37
     0.143     0.810   0.902172E-39
     0.143     0.825   0.296516E-40
     0.143     0.841   0.888820E-42
     0.143     0.857   0.241624E-43
     0.143     0.873   0.591733E-45
     0.143     0.889   0.129506E-46
     0.143     0.905   0.250835E-48
     0.143     0.921   0.424754E-50
     0.143     0.937   0.619175E-52
     0.143     0.952   0.761321E-54
     0.143     0.968   0.767844E-56
     0.143     0.984   0.609946E-58
     0.143     1.000    0.00000    
     0.159     0.000   0.478254    
     0.159     0.016   0.372473    
     0.159     0.032   0.275266    
     0.159     0.048   0.192362    
     0.159     0.063   0.126770    
     0.159     0.079   0.786271E-01
     0.159     0.095   0.458317E-01
     0.159     0.111   0.250839E-01
     0.159     0.127   0.128834E-01
     0.159     0.143   0.620842E-02
     0.159     0.159   0.280715E-02
     0.159     0.175   0.119120E-02
     0.159     0.190   0.474567E-03
     0.159     0.206   0.177587E-03
     0.159     0.222   0.624536E-04
     0.159     0.238   0.206532E-04
     0.159     0.254   0.642624E-05
     0.159     0.270   0.188246E-05
     0.159     0.286   0.519450E-06
     0.159     0.302   0.135100E-06
     0.159     0.317   0.331350E-07
     0.159     0.333   0.766746E-08
     0.159     0.349   0.167471E-08
     0.159     0.365   0.345401E-09
     0.159     0.381   0.672903E-10
     0.159     0.397   0.123865E-10
     0.159     0.413   0.215485E-11
     0.159     0.429   0.354349E-12
     0.159     0.444   0.550855E-13
     0.159     0.460   0.809576E-14
     0.159     0.476   0.112483E-14
     0.159     0.492   0.147735E-15
     0.159     0.508   0.183392E-16
     0.159     0.524   0.215121E-17
     0.159     0.540   0.238371E-18
     0.159     0.556   0.249415E-19
     0.159     0.571   0.246312E-20
     0.159     0.587   0.229455E-21
     0.159     0.603   0.201496E-22
     0.159     0.619   0.166671E-23
     0.159     0.635   0.129746E-24
     0.159     0.651   0.949568E-26
     0.159     0.667   0.652619E-27
     0.159     0.683   0.420658E-28
     0.159     0.698   0.253920E-29
     0.159     0.714   0.143297E-30
     0.159     0.730   0.754637E-32
     0.159     0.746   0.370063E-33
     0.159     0.762   0.168579E-34
     0.159     0.778   0.711433E-36
     0.159     0.794   0.277274E-37
     0.159     0.810   0.994431E-39
     0.159     0.825   0.326839E-40
     0.159     0.841   0.979714E-42
     0.159     0.857   0.266333E-43
     0.159     0.873   0.652246E-45
     0.159     0.889   0.142750E-46
     0.159     0.905   0.276486E-48
     0.159     0.921   0.468191E-50
     0.159     0.937   0.682494E-52
     0.159     0.952   0.839176E-54
     0.159     0.968   0.846365E-56
     0.159     0.984   0.672321E-58
     0.159     1.000    0.00000    
     0.175     0.000   0.521435    
     0.175     0.016   0.406103    
     0.175     0.032   0.300119    
     0.175     0.048   0.209730    
     0.175     0.063   0.138216    
     0.175     0.079   0.857262E-01
     0.175     0.095   0.499698E-01
     0.175     0.111   0.273487E-01
     0.175     0.127   0.140466E-01
     0.175     0.143   0.676897E-02
     0.175     0.159   0.306060E-02
     0.175     0.175   0.129875E-02
     0.175     0.190   0.517415E-03
     0.175     0.206   0.193621E-03
     0.175     0.222   0.680925E-04
     0.175     0.238   0.225179E-04
     0.175     0.254   0.700646E-05
     0.175     0.270   0.205242E-05
     0.175     0.286   0.566351E-06
     0.175     0.302   0.147298E-06
     0.175     0.317   0.361268E-07
     0.175     0.333   0.835975E-08
     0.175     0.349   0.182592E-08
     0.175     0.365   0.376587E-09
     0.175     0.381   0.733659E-10
     0.175     0.397   0.135049E-10
     0.175     0.413   0.234941E-11
     0.175     0.429   0.386342E-12
     0.175     0.444   0.600591E-13
     0.175     0.460   0.882672E-14
     0.175     0.476   0.122639E-14
     0.175     0.492   0.161074E-15
     0.175     0.508   0.199951E-16
     0.175     0.524   0.234544E-17
     0.175     0.540   0.259893E-18
     0.175     0.556   0.271934E-19
     0.175     0.571   0.268551E-20
     0.175     0.587   0.250172E-21
     0.175     0.603   0.219689E-22
     0.175     0.619   0.181720E-23
     0.175     0.635   0.141460E-24
     0.175     0.651   0.103530E-25
     0.175     0.667   0.711544E-27
     0.175     0.683   0.458639E-28
     0.175     0.698   0.276846E-29
     0.175     0.714   0.156235E-30
     0.175     0.730   0.822773E-32
     0.175     0.746   0.403476E-33
     0.175     0.762   0.183800E-34
     0.175     0.778   0.775668E-36
     0.175     0.794   0.302309E-37
     0.175     0.810   0.108422E-38
     0.175     0.825   0.356349E-40
     0.175     0.841   0.106817E-41
     0.175     0.857   0.290380E-43
     0.175     0.873   0.711136E-45
     0.175     0.889   0.155639E-46
     0.175     0.905   0.301450E-48
     0.175     0.921   0.510464E-50
     0.175     0.937   0.744115E-52
     0.175     0.952   0.914945E-54
     0.175     0.968   0.922783E-56
     0.175     0.984   0.733025E-58
     0.175     1.000    0.00000    
     0.190     0.000   0.563320    
     0.190     0.016   0.438723    
     0.190     0.032   0.324227    
     0.190     0.048   0.226577    
     0.190     0.063   0.149318    
     0.190     0.079   0.926123E-01
     0.190     0.095   0.539837E-01
     0.190     0.111   0.295455E-01
     0.190     0.127   0.151749E-01
     0.190     0.143   0.731270E-02
     0.190     0.159   0.330645E-02
     0.190     0.175   0.140307E-02
     0.190     0.190   0.558977E-03
     0.190     0.206   0.209174E-03
     0.190     0.222   0.735621E-04
     0.190     0.238   0.243267E-04
     0.190     0.254   0.756926E-05
     0.190     0.270   0.221728E-05
     0.190     0.286   0.611843E-06
     0.190     0.302   0.159130E-06
     0.190     0.317   0.390287E-07
     0.190     0.333   0.903126E-08
     0.190     0.349   0.197259E-08
     0.190     0.365   0.406837E-09
     0.190     0.381   0.792590E-10
     0.190     0.397   0.145897E-10
     0.190     0.413   0.253813E-11
     0.190     0.429   0.417376E-12
     0.190     0.444   0.648834E-13
     0.190     0.460   0.953574E-14
     0.190     0.476   0.132490E-14
     0.190     0.492   0.174012E-15
     0.190     0.508   0.216012E-16
     0.190     0.524   0.253384E-17
     0.190     0.540   0.280769E-18
     0.190     0.556   0.293778E-19
     0.190     0.571   0.290123E-20
     0.190     0.587   0.270267E-21
     0.190     0.603   0.237336E-22
     0.190     0.619   0.196316E-23
     0.190     0.635   0.152823E-24
     0.190     0.651   0.111847E-25
     0.190     0.667   0.768699E-27
     0.190     0.683   0.495480E-28
     0.190     0.698   0.299084E-29
     0.190     0.714   0.168785E-30
     0.190     0.730   0.888863E-32
     0.190     0.746   0.435885E-33
     0.190     0.762   0.198564E-34
     0.190     0.778   0.837975E-36
     0.190     0.794   0.326593E-37
     0.190     0.810   0.117131E-38
     0.190     0.825   0.384973E-40
     0.190     0.841   0.115397E-41
     0.190     0.857   0.313705E-43
     0.190     0.873   0.768259E-45
     0.190     0.889   0.168141E-46
     0.190     0.905   0.325664E-48
     0.190     0.921   0.551467E-50
     0.190     0.937   0.803887E-52
     0.190     0.952   0.988439E-54
     0.190     0.968   0.996907E-56
     0.190     0.984   0.791906E-58