Title="Temperature Data"
Variables="X","Y","T"
 
Zone I=   128, J=   128, F=POINT
     0.000     0.000    0.00000    
     0.000     0.008    0.00000    
     0.000     0.016    0.00000    
     0.000     0.024    0.00000    
     0.000     0.031    0.00000    
     0.000     0.039    0.00000    
     0.000     0.047    0.00000    
     0.000     0.055    0.00000    
     0.000     0.063    0.00000    
     0.000     0.071    0.00000    
     0.000     0.079    0.00000    
     0.000     0.087    0.00000    
     0.000     0.094    0.00000    
     0.000     0.102    0.00000    
     0.000     0.110    0.00000    
     0.000     0.118    0.00000    
     0.000     0.126    0.00000    
     0.000     0.134    0.00000    
     0.000     0.142    0.00000    
     0.000     0.150    0.00000    
     0.000     0.157    0.00000    
     0.000     0.165    0.00000    
     0.000     0.173    0.00000    
     0.000     0.181    0.00000    
     0.000     0.189    0.00000    
     0.000     0.197    0.00000    
     0.000     0.205    0.00000    
     0.000     0.213    0.00000    
     0.000     0.220    0.00000    
     0.000     0.228    0.00000    
     0.000     0.236    0.00000    
     0.000     0.244    0.00000    
     0.000     0.252    0.00000    
     0.000     0.260    0.00000    
     0.000     0.268    0.00000    
     0.000     0.276    0.00000    
     0.000     0.283    0.00000    
     0.000     0.291    0.00000    
     0.000     0.299    0.00000    
     0.000     0.307    0.00000    
     0.000     0.315    0.00000    
     0.000     0.323    0.00000    
     0.000     0.331    0.00000    
     0.000     0.339    0.00000    
     0.000     0.346    0.00000    
     0.000     0.354    0.00000    
     0.000     0.362    0.00000    
     0.000     0.370    0.00000    
     0.000     0.378    0.00000    
     0.000     0.386    0.00000    
     0.000     0.394    0.00000    
     0.000     0.402    0.00000    
     0.000     0.409    0.00000    
     0.000     0.417    0.00000    
     0.000     0.425    0.00000    
     0.000     0.433    0.00000    
     0.000     0.441    0.00000    
     0.000     0.449    0.00000    
     0.000     0.457    0.00000    
     0.000     0.465    0.00000    
     0.000     0.472    0.00000    
     0.000     0.480    0.00000    
     0.000     0.488    0.00000    
     0.000     0.496    0.00000    
     0.000     0.504    0.00000    
     0.000     0.512    0.00000    
     0.000     0.520    0.00000    
     0.000     0.528    0.00000    
     0.000     0.535    0.00000    
     0.000     0.543    0.00000    
     0.000     0.551    0.00000    
     0.000     0.559    0.00000    
     0.000     0.567    0.00000    
     0.000     0.575    0.00000    
     0.000     0.583    0.00000    
     0.000     0.591    0.00000    
     0.000     0.598    0.00000    
     0.000     0.606    0.00000    
     0.000     0.614    0.00000    
     0.000     0.622    0.00000    
     0.000     0.630    0.00000    
     0.000     0.638    0.00000    
     0.000     0.646    0.00000    
     0.000     0.654    0.00000    
     0.000     0.661    0.00000    
     0.000     0.669    0.00000    
     0.000     0.677    0.00000    
     0.000     0.685    0.00000    
     0.000     0.693    0.00000    
     0.000     0.701    0.00000    
     0.000     0.709    0.00000    
     0.000     0.717    0.00000    
     0.000     0.724    0.00000    
     0.000     0.732    0.00000    
     0.000     0.740    0.00000    
     0.000     0.748    0.00000    
     0.000     0.756    0.00000    
     0.000     0.764    0.00000    
     0.000     0.772    0.00000    
     0.000     0.780    0.00000    
     0.000     0.787    0.00000    
     0.000     0.795    0.00000    
     0.000     0.803    0.00000    
     0.000     0.811    0.00000    
     0.000     0.819    0.00000    
     0.000     0.827    0.00000    
     0.000     0.835    0.00000    
     0.000     0.843    0.00000    
     0.000     0.850    0.00000    
     0.000     0.858    0.00000    
     0.000     0.866    0.00000    
     0.000     0.874    0.00000    
     0.000     0.882    0.00000    
     0.000     0.890    0.00000    
     0.000     0.898    0.00000    
     0.000     0.906    0.00000    
     0.000     0.913    0.00000    
     0.000     0.921    0.00000    
     0.000     0.929    0.00000    
     0.000     0.937    0.00000    
     0.000     0.945    0.00000    
     0.000     0.953    0.00000    
     0.000     0.961    0.00000    
     0.000     0.969    0.00000    
     0.000     0.976    0.00000    
     0.000     0.984    0.00000    
     0.000     0.992    0.00000    
     0.000     1.000    0.00000    
     0.008     0.000   0.247344E-01
     0.008     0.008   0.241098E-01
     0.008     0.016   0.235000E-01
     0.008     0.024   0.229046E-01
     0.008     0.031   0.223232E-01
     0.008     0.039   0.217557E-01
     0.008     0.047   0.212015E-01
     0.008     0.055   0.206605E-01
     0.008     0.063   0.201323E-01
     0.008     0.071   0.196165E-01
     0.008     0.079   0.191130E-01
     0.008     0.087   0.186214E-01
     0.008     0.094   0.181415E-01
     0.008     0.102   0.176729E-01
     0.008     0.110   0.172155E-01
     0.008     0.118   0.167689E-01
     0.008     0.126   0.163329E-01
     0.008     0.134   0.159072E-01
     0.008     0.142   0.154918E-01
     0.008     0.150   0.150861E-01
     0.008     0.157   0.146901E-01
     0.008     0.165   0.143035E-01
     0.008     0.173   0.139262E-01
     0.008     0.181   0.135579E-01
     0.008     0.189   0.131984E-01
     0.008     0.197   0.128474E-01
     0.008     0.205   0.125049E-01
     0.008     0.213   0.121705E-01
     0.008     0.220   0.118442E-01
     0.008     0.228   0.115257E-01
     0.008     0.236   0.112149E-01
     0.008     0.244   0.109115E-01
     0.008     0.252   0.106156E-01
     0.008     0.260   0.103266E-01
     0.008     0.268   0.100448E-01
     0.008     0.276   0.976970E-02
     0.008     0.283   0.950137E-02
     0.008     0.291   0.923945E-02
     0.008     0.299   0.898403E-02
     0.008     0.307   0.873471E-02
     0.008     0.315   0.849160E-02
     0.008     0.323   0.825433E-02
     0.008     0.331   0.802299E-02
     0.008     0.339   0.779721E-02
     0.008     0.346   0.757712E-02
     0.008     0.354   0.736233E-02
     0.008     0.362   0.715298E-02
     0.008     0.370   0.694868E-02
     0.008     0.378   0.674958E-02
     0.008     0.386   0.655530E-02
     0.008     0.394   0.636600E-02
     0.008     0.402   0.618130E-02
     0.008     0.409   0.600135E-02
     0.008     0.417   0.582578E-02
     0.008     0.425   0.565476E-02
     0.008     0.433   0.548792E-02
     0.008     0.441   0.532542E-02
     0.008     0.449   0.516691E-02
     0.008     0.457   0.501255E-02
     0.008     0.465   0.486197E-02
     0.008     0.472   0.471537E-02
     0.008     0.480   0.457238E-02
     0.008     0.488   0.443318E-02
     0.008     0.496   0.429741E-02
     0.008     0.504   0.416526E-02
     0.008     0.512   0.403638E-02
     0.008     0.520   0.391096E-02
     0.008     0.528   0.378864E-02
     0.008     0.535   0.366961E-02
     0.008     0.543   0.355354E-02
     0.008     0.551   0.344061E-02
     0.008     0.559   0.333048E-02
     0.008     0.567   0.322334E-02
     0.008     0.575   0.311886E-02
     0.008     0.583   0.301724E-02
     0.008     0.591   0.291813E-02
     0.008     0.598   0.282173E-02
     0.008     0.606   0.272772E-02
     0.008     0.614   0.263628E-02
     0.008     0.622   0.254710E-02
     0.008     0.630   0.246037E-02
     0.008     0.638   0.237576E-02
     0.008     0.646   0.229348E-02
     0.008     0.654   0.221321E-02
     0.008     0.661   0.213513E-02
     0.008     0.669   0.205895E-02
     0.008     0.677   0.198484E-02
     0.008     0.685   0.191252E-02
     0.008     0.693   0.184215E-02
     0.008     0.701   0.177346E-02
     0.008     0.709   0.170661E-02
     0.008     0.717   0.164134E-02
     0.008     0.724   0.157779E-02
     0.008     0.732   0.151571E-02
     0.008     0.740   0.145525E-02
     0.008     0.748   0.139616E-02
     0.008     0.756   0.133858E-02
     0.008     0.764   0.128228E-02
     0.008     0.772   0.122738E-02
     0.008     0.780   0.117367E-02
     0.008     0.787   0.112126E-02
     0.008     0.795   0.106994E-02
     0.008     0.803   0.101982E-02
     0.008     0.811   0.970704E-03
     0.008     0.819   0.922691E-03
     0.008     0.827   0.875592E-03
     0.008     0.835   0.829498E-03
     0.008     0.843   0.784233E-03
     0.008     0.850   0.739877E-03
     0.008     0.858   0.696266E-03
     0.008     0.866   0.653470E-03
     0.008     0.874   0.611337E-03
     0.008     0.882   0.569924E-03
     0.008     0.890   0.529094E-03
     0.008     0.898   0.488892E-03
     0.008     0.906   0.449192E-03
     0.008     0.913   0.410028E-03
     0.008     0.921   0.371288E-03
     0.008     0.929   0.332994E-03
     0.008     0.937   0.295045E-03
     0.008     0.945   0.257453E-03
     0.008     0.953   0.220128E-03
     0.008     0.961   0.183069E-03
     0.008     0.969   0.146202E-03
     0.008     0.976   0.109512E-03
     0.008     0.984   0.729359E-04
     0.008     0.992   0.364489E-04
     0.008     1.000    0.00000    
     0.016     0.000   0.494537E-01
     0.016     0.008   0.482049E-01
     0.016     0.016   0.469856E-01
     0.016     0.024   0.457951E-01
     0.016     0.031   0.446328E-01
     0.016     0.039   0.434980E-01
     0.016     0.047   0.423901E-01
     0.016     0.055   0.413084E-01
     0.016     0.063   0.402522E-01
     0.016     0.071   0.392211E-01
     0.016     0.079   0.382144E-01
     0.016     0.087   0.372315E-01
     0.016     0.094   0.362719E-01
     0.016     0.102   0.353351E-01
     0.016     0.110   0.344204E-01
     0.016     0.118   0.335276E-01
     0.016     0.126   0.326558E-01
     0.016     0.134   0.318048E-01
     0.016     0.142   0.309740E-01
     0.016     0.150   0.301630E-01
     0.016     0.157   0.293712E-01
     0.016     0.165   0.285984E-01
     0.016     0.173   0.278439E-01
     0.016     0.181   0.271075E-01
     0.016     0.189   0.263885E-01
     0.016     0.197   0.256870E-01
     0.016     0.205   0.250020E-01
     0.016     0.213   0.243336E-01
     0.016     0.220   0.236811E-01
     0.016     0.228   0.230444E-01
     0.016     0.236   0.224229E-01
     0.016     0.244   0.218165E-01
     0.016     0.252   0.212245E-01
     0.016     0.260   0.206471E-01
     0.016     0.268   0.200834E-01
     0.016     0.276   0.195335E-01
     0.016     0.283   0.189968E-01
     0.016     0.291   0.184734E-01
     0.016     0.299   0.179624E-01
     0.016     0.307   0.174642E-01
     0.016     0.315   0.169779E-01
     0.016     0.323   0.165037E-01
     0.016     0.331   0.160409E-01
     0.016     0.339   0.155898E-01
     0.016     0.346   0.151495E-01
     0.016     0.354   0.147203E-01
     0.016     0.362   0.143014E-01
     0.016     0.370   0.138932E-01
     0.016     0.378   0.134949E-01
     0.016     0.386   0.131067E-01
     0.016     0.394   0.127280E-01
     0.016     0.402   0.123589E-01
     0.016     0.409   0.119989E-01
     0.016     0.417   0.116481E-01
     0.016     0.425   0.113059E-01
     0.016     0.433   0.109726E-01
     0.016     0.441   0.106474E-01
     0.016     0.449   0.103308E-01
     0.016     0.457   0.100219E-01
     0.016     0.465   0.972111E-02
     0.016     0.472   0.942772E-02
     0.016     0.480   0.914210E-02
     0.016     0.488   0.886350E-02
     0.016     0.496   0.859233E-02
     0.016     0.504   0.832784E-02
     0.016     0.512   0.807043E-02
     0.016     0.520   0.781938E-02
     0.016     0.528   0.757509E-02
     0.016     0.535   0.733685E-02
     0.016     0.543   0.710504E-02
     0.016     0.551   0.687898E-02
     0.016     0.559   0.665906E-02
     0.016     0.567   0.644458E-02
     0.016     0.575   0.623595E-02
     0.016     0.583   0.603250E-02
     0.016     0.591   0.583460E-02
     0.016     0.598   0.564160E-02
     0.016     0.606   0.545389E-02
     0.016     0.614   0.527082E-02
     0.016     0.622   0.509277E-02
     0.016     0.630   0.491910E-02
     0.016     0.638   0.475020E-02
     0.016     0.646   0.458543E-02
     0.016     0.654   0.442518E-02
     0.016     0.661   0.426884E-02
     0.016     0.669   0.411675E-02
     0.016     0.677   0.396836E-02
     0.016     0.685   0.382398E-02
     0.016     0.693   0.368307E-02
     0.016     0.701   0.354595E-02
     0.016     0.709   0.341208E-02
     0.016     0.717   0.328177E-02
     0.016     0.724   0.315451E-02
     0.016     0.732   0.303059E-02
     0.016     0.740   0.290951E-02
     0.016     0.748   0.279156E-02
     0.016     0.756   0.267625E-02
     0.016     0.764   0.256386E-02
     0.016     0.772   0.245393E-02
     0.016     0.780   0.234670E-02
     0.016     0.787   0.224175E-02
     0.016     0.795   0.213930E-02
     0.016     0.803   0.203894E-02
     0.016     0.811   0.194089E-02
     0.016     0.819   0.184475E-02
     0.016     0.827   0.175071E-02
     0.016     0.835   0.165842E-02
     0.016     0.843   0.156805E-02
     0.016     0.850   0.147924E-02
     0.016     0.858   0.139216E-02
     0.016     0.866   0.130649E-02
     0.016     0.874   0.122235E-02
     0.016     0.882   0.113945E-02
     0.016     0.890   0.105791E-02
     0.016     0.898   0.977444E-03
     0.016     0.906   0.898145E-03
     0.016     0.913   0.819772E-03
     0.016     0.921   0.742380E-03
     0.016     0.929   0.665757E-03
     0.016     0.937   0.589935E-03
     0.016     0.945   0.514726E-03
     0.016     0.953   0.440139E-03
     0.016     0.961   0.366011E-03
     0.016     0.969   0.292326E-03
     0.016     0.976   0.218947E-03
     0.016     0.984   0.145833E-03
     0.016     0.992   0.728724E-04
     0.016     1.000    0.00000    
     0.024     0.000   0.741428E-01
     0.024     0.008   0.722704E-01
     0.024     0.016   0.704424E-01
     0.024     0.024   0.686576E-01
     0.024     0.031   0.669151E-01
     0.024     0.039   0.652138E-01
     0.024     0.047   0.635527E-01
     0.024     0.055   0.619309E-01
     0.024     0.063   0.603476E-01
     0.024     0.071   0.588016E-01
     0.024     0.079   0.572924E-01
     0.024     0.087   0.558188E-01
     0.024     0.094   0.543802E-01
     0.024     0.102   0.529756E-01
     0.024     0.110   0.516044E-01
     0.024     0.118   0.502656E-01
     0.024     0.126   0.489588E-01
     0.024     0.134   0.476828E-01
     0.024     0.142   0.464374E-01
     0.024     0.150   0.452213E-01
     0.024     0.157   0.440344E-01
     0.024     0.165   0.428756E-01
     0.024     0.173   0.417446E-01
     0.024     0.181   0.406404E-01
     0.024     0.189   0.395628E-01
     0.024     0.197   0.385107E-01
     0.024     0.205   0.374840E-01
     0.024     0.213   0.364817E-01
     0.024     0.220   0.355037E-01
     0.024     0.228   0.345489E-01
     0.024     0.236   0.336173E-01
     0.024     0.244   0.327079E-01
     0.024     0.252   0.318207E-01
     0.024     0.260   0.309547E-01
     0.024     0.268   0.301099E-01
     0.024     0.276   0.292852E-01
     0.024     0.283   0.284809E-01
     0.024     0.291   0.276957E-01
     0.024     0.299   0.269301E-01
     0.024     0.307   0.261828E-01
     0.024     0.315   0.254540E-01
     0.024     0.323   0.247428E-01
     0.024     0.331   0.240493E-01
     0.024     0.339   0.233726E-01
     0.024     0.346   0.227128E-01
     0.024     0.354   0.220690E-01
     0.024     0.362   0.214414E-01
     0.024     0.370   0.208290E-01
     0.024     0.378   0.202322E-01
     0.024     0.386   0.196499E-01
     0.024     0.394   0.190824E-01
     0.024     0.402   0.185288E-01
     0.024     0.409   0.179894E-01
     0.024     0.417   0.174631E-01
     0.024     0.425   0.169505E-01
     0.024     0.433   0.164503E-01
     0.024     0.441   0.159632E-01
     0.024     0.449   0.154881E-01
     0.024     0.457   0.150254E-01
     0.024     0.465   0.145740E-01
     0.024     0.472   0.141346E-01
     0.024     0.480   0.137059E-01
     0.024     0.488   0.132887E-01
     0.024     0.496   0.128817E-01
     0.024     0.504   0.124856E-01
     0.024     0.512   0.120993E-01
     0.024     0.520   0.117233E-01
     0.024     0.528   0.113566E-01
     0.024     0.535   0.109999E-01
     0.024     0.543   0.106519E-01
     0.024     0.551   0.103134E-01
     0.024     0.559   0.998329E-02
     0.024     0.567   0.966214E-02
     0.024     0.575   0.934896E-02
     0.024     0.583   0.904433E-02
     0.024     0.591   0.874724E-02
     0.024     0.598   0.845828E-02
     0.024     0.606   0.817647E-02
     0.024     0.614   0.790239E-02
     0.024     0.622   0.763507E-02
     0.024     0.630   0.737508E-02
     0.024     0.638   0.712148E-02
     0.024     0.646   0.687482E-02
     0.024     0.654   0.663421E-02
     0.024     0.661   0.640016E-02
     0.024     0.669   0.617181E-02
     0.024     0.677   0.594967E-02
     0.024     0.685   0.573288E-02
     0.024     0.693   0.552195E-02
     0.024     0.701   0.531605E-02
     0.024     0.709   0.511566E-02
     0.024     0.717   0.491999E-02
     0.024     0.724   0.472950E-02
     0.024     0.732   0.454341E-02
     0.024     0.740   0.436218E-02
     0.024     0.748   0.418506E-02
     0.024     0.756   0.401247E-02
     0.024     0.764   0.384370E-02
     0.024     0.772   0.367915E-02
     0.024     0.780   0.351814E-02
     0.024     0.787   0.336103E-02
     0.024     0.795   0.320720E-02
     0.024     0.803   0.305697E-02
     0.024     0.811   0.290974E-02
     0.024     0.819   0.276581E-02
     0.024     0.827   0.262463E-02
     0.024     0.835   0.248646E-02
     0.024     0.843   0.235078E-02
     0.024     0.850   0.221782E-02
     0.024     0.858   0.208710E-02
     0.024     0.866   0.195881E-02
     0.024     0.874   0.183251E-02
     0.024     0.882   0.170838E-02
     0.024     0.890   0.158599E-02
     0.024     0.898   0.146548E-02
     0.024     0.906   0.134648E-02
     0.024     0.913   0.122908E-02
     0.024     0.921   0.111296E-02
     0.024     0.929   0.998168E-03
     0.024     0.937   0.884414E-03
     0.024     0.945   0.771728E-03
     0.024     0.953   0.659844E-03
     0.024     0.961   0.548760E-03
     0.024     0.969   0.438247E-03
     0.024     0.976   0.328267E-03
     0.024     0.984   0.218629E-03
     0.024     0.992   0.109257E-03
     0.024     1.000    0.00000    
     0.031     0.000   0.987864E-01
     0.031     0.008   0.962918E-01
     0.031     0.016   0.938562E-01
     0.031     0.024   0.914782E-01
     0.031     0.031   0.891564E-01
     0.031     0.039   0.868896E-01
     0.031     0.047   0.846764E-01
     0.031     0.055   0.825156E-01
     0.031     0.063   0.804059E-01
     0.031     0.071   0.783462E-01
     0.031     0.079   0.763352E-01
     0.031     0.087   0.743719E-01
     0.031     0.094   0.724550E-01
     0.031     0.102   0.705838E-01
     0.031     0.110   0.687566E-01
     0.031     0.118   0.669731E-01
     0.031     0.126   0.652317E-01
     0.031     0.134   0.635318E-01
     0.031     0.142   0.618721E-01
     0.031     0.150   0.602522E-01
     0.031     0.157   0.586705E-01
     0.031     0.165   0.571268E-01
     0.031     0.173   0.556196E-01
     0.031     0.181   0.541486E-01
     0.031     0.189   0.527125E-01
     0.031     0.197   0.513111E-01
     0.031     0.205   0.499428E-01
     0.031     0.213   0.486077E-01
     0.031     0.220   0.473042E-01
     0.031     0.228   0.460325E-01
     0.031     0.236   0.447909E-01
     0.031     0.244   0.435796E-01
     0.031     0.252   0.423971E-01
     0.031     0.260   0.412436E-01
     0.031     0.268   0.401176E-01
     0.031     0.276   0.390193E-01
     0.031     0.283   0.379471E-01
     0.031     0.291   0.369015E-01
     0.031     0.299   0.358809E-01
     0.031     0.307   0.348857E-01
     0.031     0.315   0.339142E-01
     0.031     0.323   0.329671E-01
     0.031     0.331   0.320426E-01
     0.031     0.339   0.311414E-01
     0.031     0.346   0.302619E-01
     0.031     0.354   0.294045E-01
     0.031     0.362   0.285679E-01
     0.031     0.370   0.277525E-01
     0.031     0.378   0.269568E-01
     0.031     0.386   0.261814E-01
     0.031     0.394   0.254248E-01
     0.031     0.402   0.246876E-01
     0.031     0.409   0.239684E-01
     0.031     0.417   0.232678E-01
     0.031     0.425   0.225842E-01
     0.031     0.433   0.219184E-01
     0.031     0.441   0.212688E-01
     0.031     0.449   0.206363E-01
     0.031     0.457   0.200192E-01
     0.031     0.465   0.194184E-01
     0.031     0.472   0.188324E-01
     0.031     0.480   0.182618E-01
     0.031     0.488   0.177053E-01
     0.031     0.496   0.171636E-01
     0.031     0.504   0.166353E-01
     0.031     0.512   0.161211E-01
     0.031     0.520   0.156196E-01
     0.031     0.528   0.151316E-01
     0.031     0.535   0.146557E-01
     0.031     0.543   0.141927E-01
     0.031     0.551   0.137411E-01
     0.031     0.559   0.133018E-01
     0.031     0.567   0.128734E-01
     0.031     0.575   0.124566E-01
     0.031     0.583   0.120502E-01
     0.031     0.591   0.116549E-01
     0.031     0.598   0.112694E-01
     0.031     0.606   0.108944E-01
     0.031     0.614   0.105287E-01
     0.031     0.622   0.101731E-01
     0.031     0.630   0.982617E-02
     0.031     0.638   0.948877E-02
     0.031     0.646   0.915965E-02
     0.031     0.654   0.883953E-02
     0.031     0.661   0.852723E-02
     0.031     0.669   0.822343E-02
     0.031     0.677   0.792700E-02
     0.031     0.685   0.763860E-02
     0.031     0.693   0.735712E-02
     0.031     0.701   0.708322E-02
     0.031     0.709   0.681580E-02
     0.031     0.717   0.655551E-02
     0.031     0.724   0.630129E-02
     0.031     0.732   0.605376E-02
     0.031     0.740   0.581190E-02
     0.031     0.748   0.557628E-02
     0.031     0.756   0.534595E-02
     0.031     0.764   0.512145E-02
     0.031     0.772   0.490185E-02
     0.031     0.780   0.468766E-02
     0.031     0.787   0.447802E-02
     0.031     0.795   0.427337E-02
     0.031     0.803   0.407290E-02
     0.031     0.811   0.387702E-02
     0.031     0.819   0.368498E-02
     0.031     0.827   0.349714E-02
     0.031     0.835   0.331279E-02
     0.031     0.843   0.313226E-02
     0.031     0.850   0.295487E-02
     0.031     0.858   0.278092E-02
     0.031     0.866   0.260978E-02
     0.031     0.874   0.244171E-02
     0.031     0.882   0.227612E-02
     0.031     0.890   0.211323E-02
     0.031     0.898   0.195250E-02
     0.031     0.906   0.179409E-02
     0.031     0.913   0.163754E-02
     0.031     0.921   0.148294E-02
     0.031     0.929   0.132988E-02
     0.031     0.937   0.117843E-02
     0.031     0.945   0.102819E-02
     0.031     0.953   0.879201E-03
     0.031     0.961   0.731126E-03
     0.031     0.969   0.583937E-03
     0.031     0.976   0.437358E-03
     0.031     0.984   0.291310E-03
     0.031     0.992   0.145566E-03
     0.031     1.000    0.00000    
     0.039     0.000   0.123370    
     0.039     0.008   0.120254    
     0.039     0.016   0.117213    
     0.039     0.024   0.114243    
     0.039     0.031   0.111343    
     0.039     0.039   0.108512    
     0.039     0.047   0.105748    
     0.039     0.055   0.103050    
     0.039     0.063   0.100415    
     0.039     0.071   0.978428E-01
     0.039     0.079   0.953315E-01
     0.039     0.087   0.928795E-01
     0.039     0.094   0.904858E-01
     0.039     0.102   0.881486E-01
     0.039     0.110   0.858670E-01
     0.039     0.118   0.836394E-01
     0.039     0.126   0.814648E-01
     0.039     0.134   0.793417E-01
     0.039     0.142   0.772693E-01
     0.039     0.150   0.752459E-01
     0.039     0.157   0.732710E-01
     0.039     0.165   0.713427E-01
     0.039     0.173   0.694608E-01
     0.039     0.181   0.676235E-01
     0.039     0.189   0.658304E-01
     0.039     0.197   0.640797E-01
     0.039     0.205   0.623714E-01
     0.039     0.213   0.607036E-01
     0.039     0.220   0.590762E-01
     0.039     0.228   0.574875E-01
     0.039     0.236   0.559374E-01
     0.039     0.244   0.544242E-01
     0.039     0.252   0.529480E-01
     0.039     0.260   0.515069E-01
     0.039     0.268   0.501012E-01
     0.039     0.276   0.487290E-01
     0.039     0.283   0.473907E-01
     0.039     0.291   0.460843E-01
     0.039     0.299   0.448103E-01
     0.039     0.307   0.435667E-01
     0.039     0.315   0.423542E-01
     0.039     0.323   0.411707E-01
     0.039     0.331   0.400168E-01
     0.039     0.339   0.388907E-01
     0.039     0.346   0.377929E-01
     0.039     0.354   0.367216E-01
     0.039     0.362   0.356774E-01
     0.039     0.370   0.346584E-01
     0.039     0.378   0.336654E-01
     0.039     0.386   0.326963E-01
     0.039     0.394   0.317522E-01
     0.039     0.402   0.308309E-01
     0.039     0.409   0.299333E-01
     0.039     0.417   0.290576E-01
     0.039     0.425   0.282047E-01
     0.039     0.433   0.273725E-01
     0.039     0.441   0.265620E-01
     0.039     0.449   0.257713E-01
     0.039     0.457   0.250014E-01
     0.039     0.465   0.242504E-01
     0.039     0.472   0.235192E-01
     0.039     0.480   0.228060E-01
     0.039     0.488   0.221117E-01
     0.039     0.496   0.214345E-01
     0.039     0.504   0.207754E-01
     0.039     0.512   0.201325E-01
     0.039     0.520   0.195070E-01
     0.039     0.528   0.188968E-01
     0.039     0.535   0.183032E-01
     0.039     0.543   0.177242E-01
     0.039     0.551   0.171610E-01
     0.039     0.559   0.166117E-01
     0.039     0.567   0.160773E-01
     0.039     0.575   0.155562E-01
     0.039     0.583   0.150493E-01
     0.039     0.591   0.145549E-01
     0.039     0.598   0.140741E-01
     0.039     0.606   0.136052E-01
     0.039     0.614   0.131492E-01
     0.039     0.622   0.127044E-01
     0.039     0.630   0.122717E-01
     0.039     0.638   0.118498E-01
     0.039     0.646   0.114393E-01
     0.039     0.654   0.110390E-01
     0.039     0.661   0.106495E-01
     0.039     0.669   0.102696E-01
     0.039     0.677   0.989993E-02
     0.039     0.685   0.953921E-02
     0.039     0.693   0.918823E-02
     0.039     0.701   0.884563E-02
     0.039     0.709   0.851219E-02
     0.039     0.717   0.818661E-02
     0.039     0.724   0.786963E-02
     0.039     0.732   0.756000E-02
     0.039     0.740   0.725844E-02
     0.039     0.748   0.696372E-02
     0.039     0.756   0.667653E-02
     0.039     0.764   0.639571E-02
     0.039     0.772   0.612190E-02
     0.039     0.780   0.585399E-02
     0.039     0.787   0.559258E-02
     0.039     0.795   0.533661E-02
     0.039     0.803   0.508663E-02
     0.039     0.811   0.484165E-02
     0.039     0.819   0.460217E-02
     0.039     0.827   0.436725E-02
     0.039     0.835   0.413734E-02
     0.039     0.843   0.391157E-02
     0.039     0.850   0.369034E-02
     0.039     0.858   0.347282E-02
     0.039     0.866   0.325936E-02
     0.039     0.874   0.304921E-02
     0.039     0.882   0.284265E-02
     0.039     0.890   0.263900E-02
     0.039     0.898   0.243848E-02
     0.039     0.906   0.224046E-02
     0.039     0.913   0.204513E-02
     0.039     0.921   0.185190E-02
     0.039     0.929   0.166090E-02
     0.039     0.937   0.147162E-02
     0.039     0.945   0.128411E-02
     0.039     0.953   0.109795E-02
     0.039     0.961   0.913107E-03
     0.039     0.969   0.729220E-03
     0.039     0.976   0.546219E-03
     0.039     0.984   0.363787E-03
     0.039     0.992   0.181799E-03
     0.039     1.000    0.00000    
     0.047     0.000   0.147877    
     0.047     0.008   0.144143    
     0.047     0.016   0.140497    
     0.047     0.024   0.136937    
     0.047     0.031   0.133462    
     0.047     0.039   0.130069    
     0.047     0.047   0.126756    
     0.047     0.055   0.123521    
     0.047     0.063   0.120363    
     0.047     0.071   0.117280    
     0.047     0.079   0.114269    
     0.047     0.087   0.111330    
     0.047     0.094   0.108461    
     0.047     0.102   0.105660    
     0.047     0.110   0.102925    
     0.047     0.118   0.100255    
     0.047     0.126   0.976479E-01
     0.047     0.134   0.951033E-01
     0.047     0.142   0.926189E-01
     0.047     0.150   0.901939E-01
     0.047     0.157   0.878262E-01
     0.047     0.165   0.855154E-01
     0.047     0.173   0.832592E-01
     0.047     0.181   0.810573E-01
     0.047     0.189   0.789075E-01
     0.047     0.197   0.768096E-01
     0.047     0.205   0.747614E-01
     0.047     0.213   0.727628E-01
     0.047     0.220   0.708116E-01
     0.047     0.228   0.689078E-01
     0.047     0.236   0.670493E-01
     0.047     0.244   0.652361E-01
     0.047     0.252   0.634660E-01
     0.047     0.260   0.617392E-01
     0.047     0.268   0.600536E-01
     0.047     0.276   0.584095E-01
     0.047     0.283   0.568046E-01
     0.047     0.291   0.552394E-01
     0.047     0.299   0.537116E-01
     0.047     0.307   0.522217E-01
     0.047     0.315   0.507676E-01
     0.047     0.323   0.493497E-01
     0.047     0.331   0.479659E-01
     0.047     0.339   0.466168E-01
     0.047     0.346   0.453002E-01
     0.047     0.354   0.440169E-01
     0.047     0.362   0.427644E-01
     0.047     0.370   0.415438E-01
     0.047     0.378   0.403527E-01
     0.047     0.386   0.391920E-01
     0.047     0.394   0.380594E-01
     0.047     0.402   0.369559E-01
     0.047     0.409   0.358793E-01
     0.047     0.417   0.348305E-01
     0.047     0.425   0.338072E-01
     0.047     0.433   0.328105E-01
     0.047     0.441   0.318382E-01
     0.047     0.449   0.308913E-01
     0.047     0.457   0.299676E-01
     0.047     0.465   0.290682E-01
     0.047     0.472   0.281909E-01
     0.047     0.480   0.273369E-01
     0.047     0.488   0.265038E-01