Title="Temperature Data"
Variables="X","Y","T"
 
Zone I=   128, J=   128, F=POINT
     0.000     0.000    0.00000    
     0.000     0.008    0.00000    
     0.000     0.016    0.00000    
     0.000     0.024    0.00000    
     0.000     0.031    0.00000    
     0.000     0.039    0.00000    
     0.000     0.047    0.00000    
     0.000     0.055    0.00000    
     0.000     0.063    0.00000    
     0.000     0.071    0.00000    
     0.000     0.079    0.00000    
     0.000     0.087    0.00000    
     0.000     0.094    0.00000    
     0.000     0.102    0.00000    
     0.000     0.110    0.00000    
     0.000     0.118    0.00000    
     0.000     0.126    0.00000    
     0.000     0.134    0.00000    
     0.000     0.142    0.00000    
     0.000     0.150    0.00000    
     0.000     0.157    0.00000    
     0.000     0.165    0.00000    
     0.000     0.173    0.00000    
     0.000     0.181    0.00000    
     0.000     0.189    0.00000    
     0.000     0.197    0.00000    
     0.000     0.205    0.00000    
     0.000     0.213    0.00000    
     0.000     0.220    0.00000    
     0.000     0.228    0.00000    
     0.000     0.236    0.00000    
     0.000     0.244    0.00000    
     0.000     0.252    0.00000    
     0.000     0.260    0.00000    
     0.000     0.268    0.00000    
     0.000     0.276    0.00000    
     0.000     0.283    0.00000    
     0.000     0.291    0.00000    
     0.000     0.299    0.00000    
     0.000     0.307    0.00000    
     0.000     0.315    0.00000    
     0.000     0.323    0.00000    
     0.000     0.331    0.00000    
     0.000     0.339    0.00000    
     0.000     0.346    0.00000    
     0.000     0.354    0.00000    
     0.000     0.362    0.00000    
     0.000     0.370    0.00000    
     0.000     0.378    0.00000    
     0.000     0.386    0.00000    
     0.000     0.394    0.00000    
     0.000     0.402    0.00000    
     0.000     0.409    0.00000    
     0.000     0.417    0.00000    
     0.000     0.425    0.00000    
     0.000     0.433    0.00000    
     0.000     0.441    0.00000    
     0.000     0.449    0.00000    
     0.000     0.457    0.00000    
     0.000     0.465    0.00000    
     0.000     0.472    0.00000    
     0.000     0.480    0.00000    
     0.000     0.488    0.00000    
     0.000     0.496    0.00000    
     0.000     0.504    0.00000    
     0.000     0.512    0.00000    
     0.000     0.520    0.00000    
     0.000     0.528    0.00000    
     0.000     0.535    0.00000    
     0.000     0.543    0.00000    
     0.000     0.551    0.00000    
     0.000     0.559    0.00000    
     0.000     0.567    0.00000    
     0.000     0.575    0.00000    
     0.000     0.583    0.00000    
     0.000     0.591    0.00000    
     0.000     0.598    0.00000    
     0.000     0.606    0.00000    
     0.000     0.614    0.00000    
     0.000     0.622    0.00000    
     0.000     0.630    0.00000    
     0.000     0.638    0.00000    
     0.000     0.646    0.00000    
     0.000     0.654    0.00000    
     0.000     0.661    0.00000    
     0.000     0.669    0.00000    
     0.000     0.677    0.00000    
     0.000     0.685    0.00000    
     0.000     0.693    0.00000    
     0.000     0.701    0.00000    
     0.000     0.709    0.00000    
     0.000     0.717    0.00000    
     0.000     0.724    0.00000    
     0.000     0.732    0.00000    
     0.000     0.740    0.00000    
     0.000     0.748    0.00000    
     0.000     0.756    0.00000    
     0.000     0.764    0.00000    
     0.000     0.772    0.00000    
     0.000     0.780    0.00000    
     0.000     0.787    0.00000    
     0.000     0.795    0.00000    
     0.000     0.803    0.00000    
     0.000     0.811    0.00000    
     0.000     0.819    0.00000    
     0.000     0.827    0.00000    
     0.000     0.835    0.00000    
     0.000     0.843    0.00000    
     0.000     0.850    0.00000    
     0.000     0.858    0.00000    
     0.000     0.866    0.00000    
     0.000     0.874    0.00000    
     0.000     0.882    0.00000    
     0.000     0.890    0.00000    
     0.000     0.898    0.00000    
     0.000     0.906    0.00000    
     0.000     0.913    0.00000    
     0.000     0.921    0.00000    
     0.000     0.929    0.00000    
     0.000     0.937    0.00000    
     0.000     0.945    0.00000    
     0.000     0.953    0.00000    
     0.000     0.961    0.00000    
     0.000     0.969    0.00000    
     0.000     0.976    0.00000    
     0.000     0.984    0.00000    
     0.000     0.992    0.00000    
     0.000     1.000    0.00000    
     0.008     0.000   0.247344E-01
     0.008     0.008   0.241263E-01
     0.008     0.016   0.235329E-01
     0.008     0.024   0.229539E-01
     0.008     0.031   0.223890E-01
     0.008     0.039   0.218378E-01
     0.008     0.047   0.212999E-01
     0.008     0.055   0.207751E-01
     0.008     0.063   0.202631E-01
     0.008     0.071   0.197634E-01
     0.008     0.079   0.192759E-01
     0.008     0.087   0.188001E-01
     0.008     0.094   0.183359E-01
     0.008     0.102   0.178829E-01
     0.008     0.110   0.174409E-01
     0.008     0.118   0.170096E-01
     0.008     0.126   0.165887E-01
     0.008     0.134   0.161780E-01
     0.008     0.142   0.157773E-01
     0.008     0.150   0.153862E-01
     0.008     0.157   0.150046E-01
     0.008     0.165   0.146322E-01
     0.008     0.173   0.142687E-01
     0.008     0.181   0.139141E-01
     0.008     0.189   0.135680E-01
     0.008     0.197   0.132302E-01
     0.008     0.205   0.129006E-01
     0.008     0.213   0.125790E-01
     0.008     0.220   0.122650E-01
     0.008     0.228   0.119587E-01
     0.008     0.236   0.116596E-01
     0.008     0.244   0.113678E-01
     0.008     0.252   0.110830E-01
     0.008     0.260   0.108050E-01
     0.008     0.268   0.105337E-01
     0.008     0.276   0.102689E-01
     0.008     0.283   0.100104E-01
     0.008     0.291   0.975816E-02
     0.008     0.299   0.951191E-02
     0.008     0.307   0.927153E-02
     0.008     0.315   0.903690E-02
     0.008     0.323   0.880785E-02
     0.008     0.331   0.858427E-02
     0.008     0.339   0.836599E-02
     0.008     0.346   0.815291E-02
     0.008     0.354   0.794488E-02
     0.008     0.362   0.774179E-02
     0.008     0.370   0.754349E-02
     0.008     0.378   0.734988E-02
     0.008     0.386   0.716084E-02
     0.008     0.394   0.697625E-02
     0.008     0.402   0.679600E-02
     0.008     0.409   0.661999E-02
     0.008     0.417   0.644809E-02
     0.008     0.425   0.628022E-02
     0.008     0.433   0.611625E-02
     0.008     0.441   0.595612E-02
     0.008     0.449   0.579969E-02
     0.008     0.457   0.564690E-02
     0.008     0.465   0.549762E-02
     0.008     0.472   0.535180E-02
     0.008     0.480   0.520931E-02
     0.008     0.488   0.507010E-02
     0.008     0.496   0.493406E-02
     0.008     0.504   0.480112E-02
     0.008     0.512   0.467119E-02
     0.008     0.520   0.454420E-02
     0.008     0.528   0.442005E-02
     0.008     0.535   0.429870E-02
     0.008     0.543   0.418004E-02
     0.008     0.551   0.406402E-02
     0.008     0.559   0.395056E-02
     0.008     0.567   0.383959E-02
     0.008     0.575   0.373104E-02
     0.008     0.583   0.362486E-02
     0.008     0.591   0.352096E-02
     0.008     0.598   0.341930E-02
     0.008     0.606   0.331979E-02
     0.008     0.614   0.322239E-02
     0.008     0.622   0.312702E-02
     0.008     0.630   0.303365E-02
     0.008     0.638   0.294220E-02
     0.008     0.646   0.285262E-02
     0.008     0.654   0.276485E-02
     0.008     0.661   0.267885E-02
     0.008     0.669   0.259454E-02
     0.008     0.677   0.251189E-02
     0.008     0.685   0.243084E-02
     0.008     0.693   0.235134E-02
     0.008     0.701   0.227334E-02
     0.008     0.709   0.219680E-02
     0.008     0.717   0.212165E-02
     0.008     0.724   0.204787E-02
     0.008     0.732   0.197540E-02
     0.008     0.740   0.190419E-02
     0.008     0.748   0.183420E-02
     0.008     0.756   0.176539E-02
     0.008     0.764   0.169771E-02
     0.008     0.772   0.163112E-02
     0.008     0.780   0.156557E-02
     0.008     0.787   0.150104E-02
     0.008     0.795   0.143747E-02
     0.008     0.803   0.137483E-02
     0.008     0.811   0.131306E-02
     0.008     0.819   0.125215E-02
     0.008     0.827   0.119204E-02
     0.008     0.835   0.113271E-02
     0.008     0.843   0.107409E-02
     0.008     0.850   0.101618E-02
     0.008     0.858   0.958920E-03
     0.008     0.866   0.902283E-03
     0.008     0.874   0.846223E-03
     0.008     0.882   0.790716E-03
     0.008     0.890   0.735715E-03
     0.008     0.898   0.681194E-03
     0.008     0.906   0.627110E-03
     0.008     0.913   0.573435E-03
     0.008     0.921   0.520128E-03
     0.008     0.929   0.467161E-03
     0.008     0.937   0.414494E-03
     0.008     0.945   0.362098E-03
     0.008     0.953   0.309934E-03
     0.008     0.961   0.257973E-03
     0.008     0.969   0.206177E-03
     0.008     0.976   0.154517E-03
     0.008     0.984   0.102955E-03
     0.008     0.992   0.514610E-04
     0.008     1.000    0.00000    
     0.016     0.000   0.494537E-01
     0.016     0.008   0.482378E-01
     0.016     0.016   0.470514E-01
     0.016     0.024   0.458938E-01
     0.016     0.031   0.447643E-01
     0.016     0.039   0.436622E-01
     0.016     0.047   0.425869E-01
     0.016     0.055   0.415376E-01
     0.016     0.063   0.405137E-01
     0.016     0.071   0.395147E-01
     0.016     0.079   0.385399E-01
     0.016     0.087   0.375887E-01
     0.016     0.094   0.366606E-01
     0.016     0.102   0.357549E-01
     0.016     0.110   0.348712E-01
     0.016     0.118   0.340088E-01
     0.016     0.126   0.331673E-01
     0.016     0.134   0.323462E-01
     0.016     0.142   0.315449E-01
     0.016     0.150   0.307630E-01
     0.016     0.157   0.300000E-01
     0.016     0.165   0.292554E-01
     0.016     0.173   0.285287E-01
     0.016     0.181   0.278197E-01
     0.016     0.189   0.271277E-01
     0.016     0.197   0.264524E-01
     0.016     0.205   0.257934E-01
     0.016     0.213   0.251502E-01
     0.016     0.220   0.245225E-01
     0.016     0.228   0.239100E-01
     0.016     0.236   0.233122E-01
     0.016     0.244   0.227287E-01
     0.016     0.252   0.221592E-01
     0.016     0.260   0.216035E-01
     0.016     0.268   0.210610E-01
     0.016     0.276   0.205315E-01
     0.016     0.283   0.200148E-01
     0.016     0.291   0.195104E-01
     0.016     0.299   0.190180E-01
     0.016     0.307   0.185374E-01
     0.016     0.315   0.180683E-01
     0.016     0.323   0.176103E-01
     0.016     0.331   0.171633E-01
     0.016     0.339   0.167269E-01
     0.016     0.346   0.163008E-01
     0.016     0.354   0.158849E-01
     0.016     0.362   0.154788E-01
     0.016     0.370   0.150824E-01
     0.016     0.378   0.146953E-01
     0.016     0.386   0.143173E-01
     0.016     0.394   0.139482E-01
     0.016     0.402   0.135879E-01
     0.016     0.409   0.132359E-01
     0.016     0.417   0.128922E-01
     0.016     0.425   0.125566E-01
     0.016     0.433   0.122288E-01
     0.016     0.441   0.119086E-01
     0.016     0.449   0.115958E-01
     0.016     0.457   0.112903E-01
     0.016     0.465   0.109919E-01
     0.016     0.472   0.107003E-01
     0.016     0.480   0.104154E-01
     0.016     0.488   0.101371E-01
     0.016     0.496   0.986511E-02
     0.016     0.504   0.959929E-02
     0.016     0.512   0.933952E-02
     0.016     0.520   0.908560E-02
     0.016     0.528   0.883741E-02
     0.016     0.535   0.859475E-02
     0.016     0.543   0.835753E-02
     0.016     0.551   0.812554E-02
     0.016     0.559   0.789871E-02
     0.016     0.567   0.767683E-02
     0.016     0.575   0.745982E-02
     0.016     0.583   0.724749E-02
     0.016     0.591   0.703978E-02
     0.016     0.598   0.683649E-02
     0.016     0.606   0.663755E-02
     0.016     0.614   0.644279E-02
     0.016     0.622   0.625215E-02
     0.016     0.630   0.606544E-02
     0.016     0.638   0.588261E-02
     0.016     0.646   0.570349E-02
     0.016     0.654   0.552802E-02
     0.016     0.661   0.535604E-02
     0.016     0.669   0.518750E-02
     0.016     0.677   0.502224E-02
     0.016     0.685   0.486020E-02
     0.016     0.693   0.470124E-02
     0.016     0.701   0.454530E-02
     0.016     0.709   0.439225E-02
     0.016     0.717   0.424202E-02
     0.016     0.724   0.409448E-02
     0.016     0.732   0.394959E-02
     0.016     0.740   0.380721E-02
     0.016     0.748   0.366728E-02
     0.016     0.756   0.352969E-02
     0.016     0.764   0.339438E-02
     0.016     0.772   0.326124E-02
     0.016     0.780   0.313020E-02
     0.016     0.787   0.300116E-02
     0.016     0.795   0.287407E-02
     0.016     0.803   0.274881E-02
     0.016     0.811   0.262533E-02
     0.016     0.819   0.250353E-02
     0.016     0.827   0.238336E-02
     0.016     0.835   0.226471E-02
     0.016     0.843   0.214754E-02
     0.016     0.850   0.203174E-02
     0.016     0.858   0.191726E-02
     0.016     0.866   0.180401E-02
     0.016     0.874   0.169193E-02
     0.016     0.882   0.158094E-02
     0.016     0.890   0.147098E-02
     0.016     0.898   0.136197E-02
     0.016     0.906   0.125384E-02
     0.016     0.913   0.114652E-02
     0.016     0.921   0.103994E-02
     0.016     0.929   0.934034E-03
     0.016     0.937   0.828737E-03
     0.016     0.945   0.723972E-03
     0.016     0.953   0.619680E-03
     0.016     0.961   0.515786E-03
     0.016     0.969   0.412230E-03
     0.016     0.976   0.308938E-03
     0.016     0.984   0.205848E-03
     0.016     0.992   0.102890E-03
     0.016     1.000    0.00000    
     0.024     0.000   0.741428E-01
     0.024     0.008   0.723198E-01
     0.024     0.016   0.705411E-01
     0.024     0.024   0.688056E-01
     0.024     0.031   0.671122E-01
     0.024     0.039   0.654599E-01
     0.024     0.047   0.638477E-01
     0.024     0.055   0.622746E-01
     0.024     0.063   0.607396E-01
     0.024     0.071   0.592419E-01
     0.024     0.079   0.577804E-01
     0.024     0.087   0.563543E-01
     0.024     0.094   0.549628E-01
     0.024     0.102   0.536050E-01
     0.024     0.110   0.522801E-01
     0.024     0.118   0.509872E-01
     0.024     0.126   0.497256E-01
     0.024     0.134   0.484945E-01
     0.024     0.142   0.472932E-01
     0.024     0.150   0.461209E-01
     0.024     0.157   0.449770E-01
     0.024     0.165   0.438607E-01
     0.024     0.173   0.427713E-01
     0.024     0.181   0.417082E-01
     0.024     0.189   0.406708E-01
     0.024     0.197   0.396583E-01
     0.024     0.205   0.386703E-01
     0.024     0.213   0.377061E-01
     0.024     0.220   0.367651E-01
     0.024     0.228   0.358467E-01
     0.024     0.236   0.349504E-01
     0.024     0.244   0.340756E-01
     0.024     0.252   0.332219E-01
     0.024     0.260   0.323886E-01
     0.024     0.268   0.315754E-01
     0.024     0.276   0.307816E-01
     0.024     0.283   0.300068E-01
     0.024     0.291   0.292506E-01
     0.024     0.299   0.285124E-01
     0.024     0.307   0.277919E-01
     0.024     0.315   0.270886E-01
     0.024     0.323   0.264020E-01
     0.024     0.331   0.257318E-01
     0.024     0.339   0.250775E-01
     0.024     0.346   0.244388E-01
     0.024     0.354   0.238152E-01
     0.024     0.362   0.232064E-01
     0.024     0.370   0.226120E-01
     0.024     0.378   0.220317E-01
     0.024     0.386   0.214650E-01
     0.024     0.394   0.209117E-01
     0.024     0.402   0.203714E-01
     0.024     0.409   0.198438E-01
     0.024     0.417   0.193285E-01
     0.024     0.425   0.188253E-01
     0.024     0.433   0.183338E-01
     0.024     0.441   0.178538E-01
     0.024     0.449   0.173849E-01
     0.024     0.457   0.169269E-01
     0.024     0.465   0.164794E-01
     0.024     0.472   0.160423E-01
     0.024     0.480   0.156152E-01
     0.024     0.488   0.151979E-01
     0.024     0.496   0.147901E-01
     0.024     0.504   0.143916E-01
     0.024     0.512   0.140021E-01
     0.024     0.520   0.136215E-01
     0.024     0.528   0.132493E-01
     0.024     0.535   0.128856E-01
     0.024     0.543   0.125299E-01
     0.024     0.551   0.121821E-01
     0.024     0.559   0.118420E-01
     0.024     0.567   0.115094E-01
     0.024     0.575   0.111840E-01
     0.024     0.583   0.108657E-01
     0.024     0.591   0.105543E-01
     0.024     0.598   0.102495E-01
     0.024     0.606   0.995123E-02
     0.024     0.614   0.965928E-02
     0.024     0.622   0.937342E-02
     0.024     0.630   0.909354E-02
     0.024     0.638   0.881939E-02
     0.024     0.646   0.855089E-02
     0.024     0.654   0.828778E-02
     0.024     0.661   0.802998E-02
     0.024     0.669   0.777726E-02
     0.024     0.677   0.752953E-02
     0.024     0.685   0.728656E-02
     0.024     0.693   0.704828E-02
     0.024     0.701   0.681446E-02
     0.024     0.709   0.658502E-02
     0.024     0.717   0.635977E-02
     0.024     0.724   0.613861E-02
     0.024     0.732   0.592135E-02
     0.024     0.740   0.570791E-02
     0.024     0.748   0.549811E-02
     0.024     0.756   0.529185E-02
     0.024     0.764   0.508896E-02
     0.024     0.772   0.488937E-02
     0.024     0.780   0.469289E-02
     0.024     0.787   0.449946E-02
     0.024     0.795   0.430889E-02
     0.024     0.803   0.412112E-02
     0.024     0.811   0.393598E-02
     0.024     0.819   0.375339E-02
     0.024     0.827   0.357321E-02
     0.024     0.835   0.339535E-02
     0.024     0.843   0.321966E-02
     0.024     0.850   0.304606E-02
     0.024     0.858   0.287441E-02
     0.024     0.866   0.270464E-02
     0.024     0.874   0.253660E-02
     0.024     0.882   0.237021E-02
     0.024     0.890   0.220534E-02
     0.024     0.898   0.204191E-02
     0.024     0.906   0.187979E-02
     0.024     0.913   0.171890E-02
     0.024     0.921   0.155911E-02
     0.024     0.929   0.140034E-02
     0.024     0.937   0.124247E-02
     0.024     0.945   0.108541E-02
     0.024     0.953   0.929043E-03
     0.024     0.961   0.773287E-03
     0.024     0.969   0.618027E-03
     0.024     0.976   0.463172E-03
     0.024     0.984   0.308613E-03
     0.024     0.992   0.154257E-03
     0.024     1.000    0.00000    
     0.031     0.000   0.987864E-01
     0.031     0.008   0.963576E-01
     0.031     0.016   0.939877E-01
     0.031     0.024   0.916753E-01
     0.031     0.031   0.894191E-01
     0.031     0.039   0.872176E-01
     0.031     0.047   0.850695E-01
     0.031     0.055   0.829735E-01
     0.031     0.063   0.809283E-01
     0.031     0.071   0.789327E-01
     0.031     0.079   0.769855E-01
     0.031     0.087   0.750855E-01
     0.031     0.094   0.732314E-01
     0.031     0.102   0.714223E-01
     0.031     0.110   0.696570E-01
     0.031     0.118   0.679344E-01
     0.031     0.126   0.662535E-01
     0.031     0.134   0.646132E-01
     0.031     0.142   0.630126E-01
     0.031     0.150   0.614507E-01
     0.031     0.157   0.599265E-01
     0.031     0.165   0.584391E-01
     0.031     0.173   0.569877E-01
     0.031     0.181   0.555712E-01
     0.031     0.189   0.541890E-01
     0.031     0.197   0.528400E-01
     0.031     0.205   0.515236E-01
     0.031     0.213   0.502389E-01
     0.031     0.220   0.489851E-01
     0.031     0.228   0.477615E-01
     0.031     0.236   0.465673E-01
     0.031     0.244   0.454018E-01
     0.031     0.252   0.442642E-01
     0.031     0.260   0.431540E-01
     0.031     0.268   0.420704E-01
     0.031     0.276   0.410128E-01
     0.031     0.283   0.399805E-01
     0.031     0.291   0.389730E-01
     0.031     0.299   0.379894E-01
     0.031     0.307   0.370294E-01
     0.031     0.315   0.360923E-01
     0.031     0.323   0.351776E-01
     0.031     0.331   0.342846E-01
     0.031     0.339   0.334128E-01
     0.031     0.346   0.325618E-01
     0.031     0.354   0.317309E-01
     0.031     0.362   0.309198E-01
     0.031     0.370   0.301278E-01
     0.031     0.378   0.293545E-01
     0.031     0.386   0.285996E-01
     0.031     0.394   0.278623E-01
     0.031     0.402   0.271425E-01
     0.031     0.409   0.264394E-01
     0.031     0.417   0.257529E-01
     0.031     0.425   0.250824E-01
     0.031     0.433   0.244276E-01
     0.031     0.441   0.237880E-01
     0.031     0.449   0.231633E-01
     0.031     0.457   0.225530E-01
     0.031     0.465   0.219569E-01
     0.031     0.472   0.213744E-01
     0.031     0.480   0.208054E-01
     0.031     0.488   0.202494E-01
     0.031     0.496   0.197061E-01
     0.031     0.504   0.191751E-01
     0.031     0.512   0.186562E-01
     0.031     0.520   0.181490E-01
     0.031     0.528   0.176532E-01
     0.031     0.535   0.171685E-01
     0.031     0.543   0.166946E-01
     0.031     0.551   0.162312E-01
     0.031     0.559   0.157781E-01
     0.031     0.567   0.153349E-01
     0.031     0.575   0.149014E-01
     0.031     0.583   0.144773E-01
     0.031     0.591   0.140623E-01
     0.031     0.598   0.136562E-01
     0.031     0.606   0.132589E-01
     0.031     0.614   0.128698E-01
     0.031     0.622   0.124890E-01
     0.031     0.630   0.121160E-01
     0.031     0.638   0.117508E-01
     0.031     0.646   0.113930E-01
     0.031     0.654   0.110425E-01
     0.031     0.661   0.106990E-01
     0.031     0.669   0.103623E-01
     0.031     0.677   0.100322E-01
     0.031     0.685   0.970850E-02
     0.031     0.693   0.939097E-02
     0.031     0.701   0.907948E-02
     0.031     0.709   0.877374E-02
     0.031     0.717   0.847365E-02
     0.031     0.724   0.817895E-02
     0.031     0.732   0.788952E-02
     0.031     0.740   0.760510E-02
     0.031     0.748   0.732559E-02
     0.031     0.756   0.705075E-02
     0.031     0.764   0.678046E-02
     0.031     0.772   0.651449E-02
     0.031     0.780   0.625274E-02
     0.031     0.787   0.599498E-02
     0.031     0.795   0.574110E-02
     0.031     0.803   0.549089E-02
     0.031     0.811   0.524424E-02
     0.031     0.819   0.500094E-02
     0.031     0.827   0.476089E-02
     0.031     0.835   0.452388E-02
     0.031     0.843   0.428982E-02
     0.031     0.850   0.405850E-02
     0.031     0.858   0.382983E-02
     0.031     0.866   0.360360E-02
     0.031     0.874   0.337973E-02
     0.031     0.882   0.315802E-02
     0.031     0.890   0.293837E-02
     0.031     0.898   0.272060E-02
     0.031     0.906   0.250461E-02
     0.031     0.913   0.229023E-02
     0.031     0.921   0.207734E-02
     0.031     0.929   0.186578E-02
     0.031     0.937   0.165545E-02
     0.031     0.945   0.144617E-02
     0.031     0.953   0.123784E-02
     0.031     0.961   0.103031E-02
     0.031     0.969   0.823450E-03
     0.031     0.976   0.617119E-03
     0.031     0.984   0.411192E-03
     0.031     0.992   0.205529E-03
     0.031     1.000    0.00000    
     0.039     0.000   0.123370    
     0.039     0.008   0.120336    
     0.039     0.016   0.117377    
     0.039     0.024   0.114489    
     0.039     0.031   0.111671    
     0.039     0.039   0.108922    
     0.039     0.047   0.106239    
     0.039     0.055   0.103622    
     0.039     0.063   0.101068    
     0.039     0.071   0.985753E-01
     0.039     0.079   0.961435E-01
     0.039     0.087   0.937706E-01
     0.039     0.094   0.914553E-01
     0.039     0.102   0.891959E-01
     0.039     0.110   0.869913E-01
     0.039     0.118   0.848400E-01
     0.039     0.126   0.827408E-01
     0.039     0.134   0.806923E-01
     0.039     0.142   0.786934E-01
     0.039     0.150   0.767428E-01
     0.039     0.157   0.748394E-01
     0.039     0.165   0.729818E-01
     0.039     0.173   0.711692E-01
     0.039     0.181   0.694003E-01
     0.039     0.189   0.676740E-01
     0.039     0.197   0.659894E-01
     0.039     0.205   0.643454E-01
     0.039     0.213   0.627409E-01
     0.039     0.220   0.611752E-01
     0.039     0.228   0.596470E-01
     0.039     0.236   0.581556E-01
     0.039     0.244   0.567001E-01
     0.039     0.252   0.552795E-01
     0.039     0.260   0.538930E-01
     0.039     0.268   0.525398E-01
     0.039     0.276   0.512190E-01
     0.039     0.283   0.499298E-01
     0.039     0.291   0.486714E-01
     0.039     0.299   0.474432E-01
     0.039     0.307   0.462443E-01
     0.039     0.315   0.450740E-01
     0.039     0.323   0.439316E-01
     0.039     0.331   0.428164E-01
     0.039     0.339   0.417277E-01
     0.039     0.346   0.406649E-01
     0.039     0.354   0.396272E-01
     0.039     0.362   0.386142E-01
     0.039     0.370   0.376252E-01
     0.039     0.378   0.366595E-01
     0.039     0.386   0.357166E-01
     0.039     0.394   0.347959E-01
     0.039     0.402   0.338969E-01
     0.039     0.409   0.330190E-01
     0.039     0.417   0.321616E-01
     0.039     0.425   0.313243E-01
     0.039     0.433   0.305065E-01
     0.039     0.441   0.297078E-01
     0.039     0.449   0.289275E-01
     0.039     0.457   0.281654E-01
     0.039     0.465   0.274209E-01
     0.039     0.472   0.266935E-01
     0.039     0.480   0.259829E-01
     0.039     0.488   0.252885E-01
     0.039     0.496   0.246099E-01
     0.039     0.504   0.239469E-01
     0.039     0.512   0.232988E-01
     0.039     0.520   0.226654E-01
     0.039     0.528   0.220462E-01
     0.039     0.535   0.214409E-01
     0.039     0.543   0.208491E-01
     0.039     0.551   0.202704E-01
     0.039     0.559   0.197045E-01
     0.039     0.567   0.191510E-01
     0.039     0.575   0.186096E-01
     0.039     0.583   0.180800E-01
     0.039     0.591   0.175617E-01
     0.039     0.598   0.170547E-01
     0.039     0.606   0.165583E-01
     0.039     0.614   0.160725E-01
     0.039     0.622   0.155969E-01
     0.039     0.630   0.151312E-01
     0.039     0.638   0.146750E-01
     0.039     0.646   0.142282E-01
     0.039     0.654   0.137904E-01
     0.039     0.661   0.133615E-01
     0.039     0.669   0.129410E-01
     0.039     0.677   0.125287E-01
     0.039     0.685   0.121245E-01
     0.039     0.693   0.117280E-01
     0.039     0.701   0.113389E-01
     0.039     0.709   0.109571E-01
     0.039     0.717   0.105823E-01
     0.039     0.724   0.102143E-01
     0.039     0.732   0.985282E-02
     0.039     0.740   0.949767E-02
     0.039     0.748   0.914856E-02
     0.039     0.756   0.880536E-02
     0.039     0.764   0.846777E-02
     0.039     0.772   0.813566E-02
     0.039     0.780   0.780873E-02
     0.039     0.787   0.748686E-02
     0.039     0.795   0.716977E-02
     0.039     0.803   0.685732E-02
     0.039     0.811   0.654926E-02
     0.039     0.819   0.624545E-02
     0.039     0.827   0.594563E-02
     0.039     0.835   0.564968E-02
     0.039     0.843   0.535734E-02
     0.039     0.850   0.506848E-02
     0.039     0.858   0.478287E-02
     0.039     0.866   0.450038E-02
     0.039     0.874   0.422077E-02
     0.039     0.882   0.394391E-02
     0.039     0.890   0.366958E-02
     0.039     0.898   0.339764E-02
     0.039     0.906   0.312788E-02
     0.039     0.913   0.286016E-02
     0.039     0.921   0.259428E-02
     0.039     0.929   0.233009E-02
     0.039     0.937   0.206740E-02
     0.039     0.945   0.180606E-02
     0.039     0.953   0.154588E-02
     0.039     0.961   0.128671E-02
     0.039     0.969   0.102836E-02
     0.039     0.976   0.770693E-03
     0.039     0.984   0.513516E-03
     0.039     0.992   0.256676E-03
     0.039     1.000    0.00000    
     0.047     0.000   0.147877    
     0.047     0.008   0.144242    
     0.047     0.016   0.140694    
     0.047     0.024   0.137232    
     0.047     0.031   0.133855    
     0.047     0.039   0.130560    
     0.047     0.047   0.127344    
     0.047     0.055   0.124206    
     0.047     0.063   0.121145    
     0.047     0.071   0.118158    
     0.047     0.079   0.115243    
     0.047     0.087   0.112398    
     0.047     0.094   0.109623    
     0.047     0.102   0.106915    
     0.047     0.110   0.104272    
     0.047     0.118   0.101694    
     0.047     0.126   0.991775E-01
     0.047     0.134   0.967221E-01
     0.047     0.142   0.943261E-01
     0.047     0.150   0.919880E-01
     0.047     0.157   0.897064E-01
     0.047     0.165   0.874799E-01
     0.047     0.173   0.853071E-01
     0.047     0.181   0.831868E-01
     0.047     0.189   0.811177E-01
     0.047     0.197   0.790984E-01
     0.047     0.205   0.771278E-01
     0.047     0.213   0.752046E-01
     0.047     0.220   0.733277E-01
     0.047     0.228   0.714961E-01
     0.047     0.236   0.697084E-01
     0.047     0.244   0.679637E-01
     0.047     0.252   0.662609E-01
     0.047     0.260   0.645990E-01
     0.047     0.268   0.629769E-01
     0.047     0.276   0.613938E-01
     0.047     0.283   0.598485E-01
     0.047     0.291   0.583402E-01
     0.047     0.299   0.568679E-01
     0.047     0.307   0.554309E-01
     0.047     0.315   0.540280E-01
     0.047     0.323   0.526587E-01
     0.047     0.331   0.513219E-01
     0.047     0.339   0.500170E-01
     0.047     0.346   0.487430E-01
     0.047     0.354   0.474993E-01
     0.047     0.362   0.462850E-01
     0.047     0.370   0.450996E-01
     0.047     0.378   0.439420E-01
     0.047     0.386   0.428118E-01
     0.047     0.394   0.417082E-01
     0.047     0.402   0.406306E-01
     0.047     0.409   0.395783E-01
     0.047     0.417   0.385506E-01
     0.047     0.425   0.375469E-01
     0.047     0.433   0.365667E-01
     0.047     0.441   0.356092E-01
     0.047     0.449   0.346741E-01
     0.047     0.457   0.337605E-01
     0.047     0.465   0.328681E-01
     0.047     0.472   0.319962E-01
     0.047     0.480   0.311445E-01
     0.047     0.488   0.303121E-01