Title="Temperature Data"
Variables="X","Y","T"
 
Zone I=   128, J=   128, F=POINT
     0.000     0.000    0.00000    
     0.000     0.008    0.00000    
     0.000     0.016    0.00000    
     0.000     0.024    0.00000    
     0.000     0.031    0.00000    
     0.000     0.039    0.00000    
     0.000     0.047    0.00000    
     0.000     0.055    0.00000    
     0.000     0.063    0.00000    
     0.000     0.071    0.00000    
     0.000     0.079    0.00000    
     0.000     0.087    0.00000    
     0.000     0.094    0.00000    
     0.000     0.102    0.00000    
     0.000     0.110    0.00000    
     0.000     0.118    0.00000    
     0.000     0.126    0.00000    
     0.000     0.134    0.00000    
     0.000     0.142    0.00000    
     0.000     0.150    0.00000    
     0.000     0.157    0.00000    
     0.000     0.165    0.00000    
     0.000     0.173    0.00000    
     0.000     0.181    0.00000    
     0.000     0.189    0.00000    
     0.000     0.197    0.00000    
     0.000     0.205    0.00000    
     0.000     0.213    0.00000    
     0.000     0.220    0.00000    
     0.000     0.228    0.00000    
     0.000     0.236    0.00000    
     0.000     0.244    0.00000    
     0.000     0.252    0.00000    
     0.000     0.260    0.00000    
     0.000     0.268    0.00000    
     0.000     0.276    0.00000    
     0.000     0.283    0.00000    
     0.000     0.291    0.00000    
     0.000     0.299    0.00000    
     0.000     0.307    0.00000    
     0.000     0.315    0.00000    
     0.000     0.323    0.00000    
     0.000     0.331    0.00000    
     0.000     0.339    0.00000    
     0.000     0.346    0.00000    
     0.000     0.354    0.00000    
     0.000     0.362    0.00000    
     0.000     0.370    0.00000    
     0.000     0.378    0.00000    
     0.000     0.386    0.00000    
     0.000     0.394    0.00000    
     0.000     0.402    0.00000    
     0.000     0.409    0.00000    
     0.000     0.417    0.00000    
     0.000     0.425    0.00000    
     0.000     0.433    0.00000    
     0.000     0.441    0.00000    
     0.000     0.449    0.00000    
     0.000     0.457    0.00000    
     0.000     0.465    0.00000    
     0.000     0.472    0.00000    
     0.000     0.480    0.00000    
     0.000     0.488    0.00000    
     0.000     0.496    0.00000    
     0.000     0.504    0.00000    
     0.000     0.512    0.00000    
     0.000     0.520    0.00000    
     0.000     0.528    0.00000    
     0.000     0.535    0.00000    
     0.000     0.543    0.00000    
     0.000     0.551    0.00000    
     0.000     0.559    0.00000    
     0.000     0.567    0.00000    
     0.000     0.575    0.00000    
     0.000     0.583    0.00000    
     0.000     0.591    0.00000    
     0.000     0.598    0.00000    
     0.000     0.606    0.00000    
     0.000     0.614    0.00000    
     0.000     0.622    0.00000    
     0.000     0.630    0.00000    
     0.000     0.638    0.00000    
     0.000     0.646    0.00000    
     0.000     0.654    0.00000    
     0.000     0.661    0.00000    
     0.000     0.669    0.00000    
     0.000     0.677    0.00000    
     0.000     0.685    0.00000    
     0.000     0.693    0.00000    
     0.000     0.701    0.00000    
     0.000     0.709    0.00000    
     0.000     0.717    0.00000    
     0.000     0.724    0.00000    
     0.000     0.732    0.00000    
     0.000     0.740    0.00000    
     0.000     0.748    0.00000    
     0.000     0.756    0.00000    
     0.000     0.764    0.00000    
     0.000     0.772    0.00000    
     0.000     0.780    0.00000    
     0.000     0.787    0.00000    
     0.000     0.795    0.00000    
     0.000     0.803    0.00000    
     0.000     0.811    0.00000    
     0.000     0.819    0.00000    
     0.000     0.827    0.00000    
     0.000     0.835    0.00000    
     0.000     0.843    0.00000    
     0.000     0.850    0.00000    
     0.000     0.858    0.00000    
     0.000     0.866    0.00000    
     0.000     0.874    0.00000    
     0.000     0.882    0.00000    
     0.000     0.890    0.00000    
     0.000     0.898    0.00000    
     0.000     0.906    0.00000    
     0.000     0.913    0.00000    
     0.000     0.921    0.00000    
     0.000     0.929    0.00000    
     0.000     0.937    0.00000    
     0.000     0.945    0.00000    
     0.000     0.953    0.00000    
     0.000     0.961    0.00000    
     0.000     0.969    0.00000    
     0.000     0.976    0.00000    
     0.000     0.984    0.00000    
     0.000     0.992    0.00000    
     0.000     1.000    0.00000    
     0.008     0.000   0.247344E-01
     0.008     0.008   0.241226E-01
     0.008     0.016   0.235256E-01
     0.008     0.024   0.229430E-01
     0.008     0.031   0.223744E-01
     0.008     0.039   0.218196E-01
     0.008     0.047   0.212782E-01
     0.008     0.055   0.207498E-01
     0.008     0.063   0.202341E-01
     0.008     0.071   0.197309E-01
     0.008     0.079   0.192398E-01
     0.008     0.087   0.187605E-01
     0.008     0.094   0.182928E-01
     0.008     0.102   0.178364E-01
     0.008     0.110   0.173909E-01
     0.008     0.118   0.169562E-01
     0.008     0.126   0.165320E-01
     0.008     0.134   0.161179E-01
     0.008     0.142   0.157139E-01
     0.008     0.150   0.153195E-01
     0.008     0.157   0.149347E-01
     0.008     0.165   0.145591E-01
     0.008     0.173   0.141925E-01
     0.008     0.181   0.138348E-01
     0.008     0.189   0.134857E-01
     0.008     0.197   0.131449E-01
     0.008     0.205   0.128124E-01
     0.008     0.213   0.124878E-01
     0.008     0.220   0.121711E-01
     0.008     0.228   0.118620E-01
     0.008     0.236   0.115603E-01
     0.008     0.244   0.112658E-01
     0.008     0.252   0.109784E-01
     0.008     0.260   0.106979E-01
     0.008     0.268   0.104242E-01
     0.008     0.276   0.101570E-01
     0.008     0.283   0.989626E-02
     0.008     0.291   0.964173E-02
     0.008     0.299   0.939334E-02
     0.008     0.307   0.915087E-02
     0.008     0.315   0.891424E-02
     0.008     0.323   0.868325E-02
     0.008     0.331   0.845782E-02
     0.008     0.339   0.823776E-02
     0.008     0.346   0.802299E-02
     0.008     0.354   0.781333E-02
     0.008     0.362   0.760871E-02
     0.008     0.370   0.740895E-02
     0.008     0.378   0.721399E-02
     0.008     0.386   0.702364E-02
     0.008     0.394   0.683787E-02
     0.008     0.402   0.665649E-02
     0.008     0.409   0.647947E-02
     0.008     0.417   0.630661E-02
     0.008     0.425   0.613790E-02
     0.008     0.433   0.597315E-02
     0.008     0.441   0.581235E-02
     0.008     0.449   0.565532E-02
     0.008     0.457   0.550204E-02
     0.008     0.465   0.535234E-02
     0.008     0.472   0.520620E-02
     0.008     0.480   0.506347E-02
     0.008     0.488   0.492413E-02
     0.008     0.496   0.478801E-02
     0.008     0.504   0.465512E-02
     0.008     0.512   0.452530E-02
     0.008     0.520   0.439853E-02
     0.008     0.528   0.427468E-02
     0.008     0.535   0.415373E-02
     0.008     0.543   0.403553E-02
     0.008     0.551   0.392010E-02
     0.008     0.559   0.380727E-02
     0.008     0.567   0.369706E-02
     0.008     0.575   0.358933E-02
     0.008     0.583   0.348407E-02
     0.008     0.591   0.338116E-02
     0.008     0.598   0.328059E-02
     0.008     0.606   0.318224E-02
     0.008     0.614   0.308611E-02
     0.008     0.622   0.299206E-02
     0.008     0.630   0.290012E-02
     0.008     0.638   0.281015E-02
     0.008     0.646   0.272216E-02
     0.008     0.654   0.263603E-02
     0.008     0.661   0.255178E-02
     0.008     0.669   0.246926E-02
     0.008     0.677   0.238852E-02
     0.008     0.685   0.230941E-02
     0.008     0.693   0.223196E-02
     0.008     0.701   0.215605E-02
     0.008     0.709   0.208170E-02
     0.008     0.717   0.200879E-02
     0.008     0.724   0.193733E-02
     0.008     0.732   0.186722E-02
     0.008     0.740   0.179847E-02
     0.008     0.748   0.173098E-02
     0.008     0.756   0.166475E-02
     0.008     0.764   0.159968E-02
     0.008     0.772   0.153580E-02
     0.008     0.780   0.147299E-02
     0.008     0.787   0.141127E-02
     0.008     0.795   0.135054E-02
     0.008     0.803   0.129081E-02
     0.008     0.811   0.123200E-02
     0.008     0.819   0.117410E-02
     0.008     0.827   0.111703E-02
     0.008     0.835   0.106080E-02
     0.008     0.843   0.100532E-02
     0.008     0.850   0.950599E-03
     0.008     0.858   0.896550E-03
     0.008     0.866   0.843176E-03
     0.008     0.874   0.790404E-03
     0.008     0.882   0.738227E-03
     0.008     0.890   0.686578E-03
     0.008     0.898   0.635448E-03
     0.008     0.906   0.584773E-03
     0.008     0.913   0.534541E-03
     0.008     0.921   0.484693E-03
     0.008     0.929   0.435212E-03
     0.008     0.937   0.386044E-03
     0.008     0.945   0.337169E-03
     0.008     0.953   0.288537E-03
     0.008     0.961   0.240124E-03
     0.008     0.969   0.191884E-03
     0.008     0.976   0.143790E-03
     0.008     0.984   0.958002E-04
     0.008     0.992   0.478828E-04
     0.008     1.000    0.00000    
     0.016     0.000   0.494537E-01
     0.016     0.008   0.482305E-01
     0.016     0.016   0.470368E-01
     0.016     0.024   0.458720E-01
     0.016     0.031   0.447352E-01
     0.016     0.039   0.436259E-01
     0.016     0.047   0.425433E-01
     0.016     0.055   0.414868E-01
     0.016     0.063   0.404558E-01
     0.016     0.071   0.394497E-01
     0.016     0.079   0.384678E-01
     0.016     0.087   0.375096E-01
     0.016     0.094   0.365744E-01
     0.016     0.102   0.356618E-01
     0.016     0.110   0.347712E-01
     0.016     0.118   0.339020E-01
     0.016     0.126   0.330538E-01
     0.016     0.134   0.322260E-01
     0.016     0.142   0.314181E-01
     0.016     0.150   0.306297E-01
     0.016     0.157   0.298602E-01
     0.016     0.165   0.291093E-01
     0.016     0.173   0.283764E-01
     0.016     0.181   0.276611E-01
     0.016     0.189   0.269631E-01
     0.016     0.197   0.262818E-01
     0.016     0.205   0.256169E-01
     0.016     0.213   0.249681E-01
     0.016     0.220   0.243348E-01
     0.016     0.228   0.237167E-01
     0.016     0.236   0.231135E-01
     0.016     0.244   0.225248E-01
     0.016     0.252   0.219501E-01
     0.016     0.260   0.213894E-01
     0.016     0.268   0.208420E-01
     0.016     0.276   0.203078E-01
     0.016     0.283   0.197864E-01
     0.016     0.291   0.192776E-01
     0.016     0.299   0.187809E-01
     0.016     0.307   0.182962E-01
     0.016     0.315   0.178230E-01
     0.016     0.323   0.173612E-01
     0.016     0.331   0.169104E-01
     0.016     0.339   0.164705E-01
     0.016     0.346   0.160410E-01
     0.016     0.354   0.156219E-01
     0.016     0.362   0.152127E-01
     0.016     0.370   0.148134E-01
     0.016     0.378   0.144235E-01
     0.016     0.386   0.140430E-01
     0.016     0.394   0.136715E-01
     0.016     0.402   0.133090E-01
     0.016     0.409   0.129549E-01
     0.016     0.417   0.126094E-01
     0.016     0.425   0.122720E-01
     0.016     0.433   0.119427E-01
     0.016     0.441   0.116211E-01
     0.016     0.449   0.113072E-01
     0.016     0.457   0.110007E-01
     0.016     0.465   0.107014E-01
     0.016     0.472   0.104092E-01
     0.016     0.480   0.101239E-01
     0.016     0.488   0.984520E-02
     0.016     0.496   0.957314E-02
     0.016     0.504   0.930736E-02
     0.016     0.512   0.904787E-02
     0.016     0.520   0.879434E-02
     0.016     0.528   0.854678E-02
     0.016     0.535   0.830487E-02
     0.016     0.543   0.806863E-02
     0.016     0.551   0.783775E-02
     0.016     0.559   0.761225E-02
     0.016     0.567   0.739182E-02
     0.016     0.575   0.717650E-02
     0.016     0.583   0.696598E-02
     0.016     0.591   0.676028E-02
     0.016     0.598   0.655914E-02
     0.016     0.606   0.636256E-02
     0.016     0.614   0.617028E-02
     0.016     0.622   0.598233E-02
     0.016     0.630   0.579843E-02
     0.016     0.638   0.561862E-02
     0.016     0.646   0.544262E-02
     0.016     0.654   0.527049E-02
     0.016     0.661   0.510195E-02
     0.016     0.669   0.493705E-02
     0.016     0.677   0.477554E-02
     0.016     0.685   0.461744E-02
     0.016     0.693   0.446253E-02
     0.016     0.701   0.431082E-02
     0.016     0.709   0.416209E-02
     0.016     0.717   0.401638E-02
     0.016     0.724   0.387345E-02
     0.016     0.732   0.373333E-02
     0.016     0.740   0.359581E-02
     0.016     0.748   0.346092E-02
     0.016     0.756   0.332845E-02
     0.016     0.764   0.319842E-02
     0.016     0.772   0.307063E-02
     0.016     0.780   0.294510E-02
     0.016     0.787   0.282164E-02
     0.016     0.795   0.270028E-02
     0.016     0.803   0.258081E-02
     0.016     0.811   0.246326E-02
     0.016     0.819   0.234746E-02
     0.016     0.827   0.223341E-02
     0.016     0.835   0.212093E-02
     0.016     0.843   0.201005E-02
     0.016     0.850   0.190060E-02
     0.016     0.858   0.179257E-02
     0.016     0.866   0.168582E-02
     0.016     0.874   0.158034E-02
     0.016     0.882   0.147599E-02
     0.016     0.890   0.137275E-02
     0.016     0.898   0.127049E-02
     0.016     0.906   0.116920E-02
     0.016     0.913   0.106874E-02
     0.016     0.921   0.969099E-03
     0.016     0.929   0.870149E-03
     0.016     0.937   0.771860E-03
     0.016     0.945   0.674125E-03
     0.016     0.953   0.576904E-03
     0.016     0.961   0.480097E-03
     0.016     0.969   0.383655E-03
     0.016     0.976   0.287490E-03
     0.016     0.984   0.191544E-03
     0.016     0.992   0.957354E-04
     0.016     1.000    0.00000    
     0.024     0.000   0.741428E-01
     0.024     0.008   0.723089E-01
     0.024     0.016   0.705193E-01
     0.024     0.024   0.687729E-01
     0.024     0.031   0.670686E-01
     0.024     0.039   0.654054E-01
     0.024     0.047   0.637824E-01
     0.024     0.055   0.621985E-01
     0.024     0.063   0.606528E-01
     0.024     0.071   0.591443E-01
     0.024     0.079   0.576722E-01
     0.024     0.087   0.562356E-01
     0.024     0.094   0.548337E-01
     0.024     0.102   0.534654E-01
     0.024     0.110   0.521302E-01
     0.024     0.118   0.508271E-01
     0.024     0.126   0.495554E-01
     0.024     0.134   0.483143E-01
     0.024     0.142   0.471031E-01
     0.024     0.150   0.459210E-01
     0.024     0.157   0.447675E-01
     0.024     0.165   0.436416E-01
     0.024     0.173   0.425429E-01
     0.024     0.181   0.414705E-01
     0.024     0.189   0.404240E-01
     0.024     0.197   0.394026E-01
     0.024     0.205   0.384059E-01
     0.024     0.213   0.374330E-01
     0.024     0.220   0.364836E-01
     0.024     0.228   0.355569E-01
     0.024     0.236   0.346526E-01
     0.024     0.244   0.337699E-01
     0.024     0.252   0.329085E-01
     0.024     0.260   0.320676E-01
     0.024     0.268   0.312471E-01
     0.024     0.276   0.304462E-01
     0.024     0.283   0.296646E-01
     0.024     0.291   0.289016E-01
     0.024     0.299   0.281570E-01
     0.024     0.307   0.274302E-01
     0.024     0.315   0.267209E-01
     0.024     0.323   0.260285E-01
     0.024     0.331   0.253528E-01
     0.024     0.339   0.246931E-01
     0.024     0.346   0.240493E-01
     0.024     0.354   0.234209E-01
     0.024     0.362   0.228075E-01
     0.024     0.370   0.222087E-01
     0.024     0.378   0.216243E-01
     0.024     0.386   0.210537E-01
     0.024     0.394   0.204969E-01
     0.024     0.402   0.199532E-01
     0.024     0.409   0.194225E-01
     0.024     0.417   0.189044E-01
     0.024     0.425   0.183987E-01
     0.024     0.433   0.179048E-01
     0.024     0.441   0.174228E-01
     0.024     0.449   0.169521E-01
     0.024     0.457   0.164927E-01
     0.024     0.465   0.160439E-01
     0.024     0.472   0.156059E-01
     0.024     0.480   0.151780E-01
     0.024     0.488   0.147603E-01
     0.024     0.496   0.143523E-01
     0.024     0.504   0.139540E-01
     0.024     0.512   0.135648E-01
     0.024     0.520   0.131848E-01
     0.024     0.528   0.128136E-01
     0.024     0.535   0.124510E-01
     0.024     0.543   0.120967E-01
     0.024     0.551   0.117507E-01
     0.024     0.559   0.114125E-01
     0.024     0.567   0.110821E-01
     0.024     0.575   0.107592E-01
     0.024     0.583   0.104437E-01
     0.024     0.591   0.101352E-01
     0.024     0.598   0.983375E-02
     0.024     0.606   0.953892E-02
     0.024     0.614   0.925076E-02
     0.024     0.622   0.896886E-02
     0.024     0.630   0.869326E-02
     0.024     0.638   0.842357E-02
     0.024     0.646   0.815983E-02
     0.024     0.654   0.790165E-02
     0.024     0.661   0.764908E-02
     0.024     0.669   0.740175E-02
     0.024     0.677   0.715971E-02
     0.024     0.685   0.692258E-02
     0.024     0.693   0.669043E-02
     0.024     0.701   0.646288E-02
     0.024     0.709   0.624001E-02
     0.024     0.717   0.602145E-02
     0.024     0.724   0.580725E-02
     0.024     0.732   0.559709E-02
     0.024     0.740   0.539102E-02
     0.024     0.748   0.518869E-02
     0.024     0.756   0.499017E-02
     0.024     0.764   0.479514E-02
     0.024     0.772   0.460363E-02
     0.024     0.780   0.441536E-02
     0.024     0.787   0.423035E-02
     0.024     0.795   0.404831E-02
     0.024     0.803   0.386928E-02
     0.024     0.811   0.369298E-02
     0.024     0.819   0.351943E-02
     0.024     0.827   0.334837E-02
     0.024     0.835   0.317981E-02
     0.024     0.843   0.301351E-02
     0.024     0.850   0.284947E-02
     0.024     0.858   0.268746E-02
     0.024     0.866   0.252747E-02
     0.024     0.874   0.236928E-02
     0.024     0.882   0.221288E-02
     0.024     0.890   0.205805E-02
     0.024     0.898   0.190479E-02
     0.024     0.906   0.175289E-02
     0.024     0.913   0.160232E-02
     0.024     0.921   0.145289E-02
     0.024     0.929   0.130457E-02
     0.024     0.937   0.115719E-02
     0.024     0.945   0.101068E-02
     0.024     0.953   0.864905E-03
     0.024     0.961   0.719785E-03
     0.024     0.969   0.575183E-03
     0.024     0.976   0.431020E-03
     0.024     0.984   0.287166E-03
     0.024     0.992   0.143531E-03
     0.024     1.000    0.00000    
     0.031     0.000   0.987864E-01
     0.031     0.008   0.963430E-01
     0.031     0.016   0.939586E-01
     0.031     0.024   0.916317E-01
     0.031     0.031   0.893609E-01
     0.031     0.039   0.871450E-01
     0.031     0.047   0.849825E-01
     0.031     0.055   0.828721E-01
     0.031     0.063   0.808126E-01
     0.031     0.071   0.788028E-01
     0.031     0.079   0.768414E-01
     0.031     0.087   0.749273E-01
     0.031     0.094   0.730593E-01
     0.031     0.102   0.712364E-01
     0.031     0.110   0.694573E-01
     0.031     0.118   0.677211E-01
     0.031     0.126   0.660267E-01
     0.031     0.134   0.643731E-01
     0.031     0.142   0.627593E-01
     0.031     0.150   0.611844E-01
     0.031     0.157   0.596473E-01
     0.031     0.165   0.581473E-01
     0.031     0.173   0.566833E-01
     0.031     0.181   0.552546E-01
     0.031     0.189   0.538602E-01
     0.031     0.197   0.524994E-01
     0.031     0.205   0.511712E-01
     0.031     0.213   0.498751E-01
     0.031     0.220   0.486100E-01
     0.031     0.228   0.473754E-01
     0.031     0.236   0.461704E-01
     0.031     0.244   0.449944E-01
     0.031     0.252   0.438465E-01
     0.031     0.260   0.427264E-01
     0.031     0.268   0.416330E-01
     0.031     0.276   0.405660E-01
     0.031     0.283   0.395244E-01
     0.031     0.291   0.385080E-01
     0.031     0.299   0.375158E-01
     0.031     0.307   0.365476E-01
     0.031     0.315   0.356024E-01
     0.031     0.323   0.346799E-01
     0.031     0.331   0.337795E-01
     0.031     0.339   0.329007E-01
     0.031     0.346   0.320428E-01
     0.031     0.354   0.312056E-01
     0.031     0.362   0.303882E-01
     0.031     0.370   0.295905E-01
     0.031     0.378   0.288118E-01
     0.031     0.386   0.280517E-01
     0.031     0.394   0.273096E-01
     0.031     0.402   0.265853E-01
     0.031     0.409   0.258782E-01
     0.031     0.417   0.251879E-01
     0.031     0.425   0.245140E-01
     0.031     0.433   0.238562E-01
     0.031     0.441   0.232138E-01
     0.031     0.449   0.225868E-01
     0.031     0.457   0.219744E-01
     0.031     0.465   0.213767E-01
     0.031     0.472   0.207929E-01
     0.031     0.480   0.202230E-01
     0.031     0.488   0.196663E-01
     0.031     0.496   0.191229E-01
     0.031     0.504   0.185919E-01
     0.031     0.512   0.180736E-01
     0.031     0.520   0.175672E-01
     0.031     0.528   0.170726E-01
     0.031     0.535   0.165894E-01
     0.031     0.543   0.161175E-01
     0.031     0.551   0.156563E-01
     0.031     0.559   0.152059E-01
     0.031     0.567   0.147656E-01
     0.031     0.575   0.143354E-01
     0.031     0.583   0.139149E-01
     0.031     0.591   0.135040E-01
     0.031     0.598   0.131022E-01
     0.031     0.606   0.127096E-01
     0.031     0.614   0.123255E-01
     0.031     0.622   0.119500E-01
     0.031     0.630   0.115827E-01
     0.031     0.638   0.112235E-01
     0.031     0.646   0.108719E-01
     0.031     0.654   0.105281E-01
     0.031     0.661   0.101914E-01
     0.031     0.669   0.986203E-02
     0.031     0.677   0.953939E-02
     0.031     0.685   0.922359E-02
     0.031     0.693   0.891413E-02
     0.031     0.701   0.861109E-02
     0.031     0.709   0.831400E-02
     0.031     0.717   0.802293E-02
     0.031     0.724   0.773741E-02
     0.031     0.732   0.745753E-02
     0.031     0.740   0.718283E-02
     0.031     0.748   0.691338E-02
     0.031     0.756   0.664875E-02
     0.031     0.764   0.638901E-02
     0.031     0.772   0.613374E-02
     0.031     0.780   0.588299E-02
     0.031     0.787   0.563638E-02
     0.031     0.795   0.539394E-02
     0.031     0.803   0.515531E-02
     0.031     0.811   0.492050E-02
     0.031     0.819   0.468917E-02
     0.031     0.827   0.446134E-02
     0.031     0.835   0.423668E-02
     0.031     0.843   0.401518E-02
     0.031     0.850   0.379654E-02
     0.031     0.858   0.358075E-02
     0.031     0.866   0.336751E-02
     0.031     0.874   0.315681E-02
     0.031     0.882   0.294836E-02
     0.031     0.890   0.274214E-02
     0.031     0.898   0.253788E-02
     0.031     0.906   0.233554E-02
     0.031     0.913   0.213487E-02
     0.031     0.921   0.193583E-02
     0.031     0.929   0.173817E-02
     0.031     0.937   0.154183E-02
     0.031     0.945   0.134660E-02
     0.031     0.953   0.115240E-02
     0.031     0.961   0.959018E-03
     0.031     0.969   0.766372E-03
     0.031     0.976   0.574276E-03
     0.031     0.984   0.382619E-03
     0.031     0.992   0.191236E-03
     0.031     1.000    0.00000    
     0.039     0.000   0.123370    
     0.039     0.008   0.120318    
     0.039     0.016   0.117340    
     0.039     0.024   0.114434    
     0.039     0.031   0.111599    
     0.039     0.039   0.108831    
     0.039     0.047   0.106131    
     0.039     0.055   0.103495    
     0.039     0.063   0.100923    
     0.039     0.071   0.984130E-01
     0.039     0.079   0.959636E-01
     0.039     0.087   0.935731E-01
     0.039     0.094   0.912403E-01
     0.039     0.102   0.889637E-01
     0.039     0.110   0.867419E-01
     0.039     0.118   0.845736E-01
     0.039     0.126   0.824576E-01
     0.039     0.134   0.803924E-01
     0.039     0.142   0.783771E-01
     0.039     0.150   0.764102E-01
     0.039     0.157   0.744907E-01
     0.039     0.165   0.726173E-01
     0.039     0.173   0.707891E-01
     0.039     0.181   0.690048E-01
     0.039     0.189   0.672634E-01
     0.039     0.197   0.655639E-01
     0.039     0.205   0.639053E-01
     0.039     0.213   0.622865E-01
     0.039     0.220   0.607067E-01
     0.039     0.228   0.591648E-01
     0.039     0.236   0.576600E-01
     0.039     0.244   0.561913E-01
     0.039     0.252   0.547579E-01
     0.039     0.260   0.533589E-01
     0.039     0.268   0.519936E-01
     0.039     0.276   0.506608E-01
     0.039     0.283   0.493603E-01
     0.039     0.291   0.480907E-01
     0.039     0.299   0.468518E-01
     0.039     0.307   0.456424E-01
     0.039     0.315   0.444622E-01
     0.039     0.323   0.433100E-01
     0.039     0.331   0.421857E-01
     0.039     0.339   0.410880E-01
     0.039     0.346   0.400168E-01
     0.039     0.354   0.389711E-01
     0.039     0.362   0.379505E-01
     0.039     0.370   0.369541E-01
     0.039     0.378   0.359817E-01
     0.039     0.386   0.350323E-01
     0.039     0.394   0.341057E-01
     0.039     0.402   0.332011E-01
     0.039     0.409   0.323181E-01
     0.039     0.417   0.314559E-01
     0.039     0.425   0.306144E-01
     0.039     0.433   0.297927E-01
     0.039     0.441   0.289907E-01
     0.039     0.449   0.282074E-01
     0.039     0.457   0.274429E-01
     0.039     0.465   0.266962E-01
     0.039     0.472   0.259673E-01
     0.039     0.480   0.252554E-01
     0.039     0.488   0.245604E-01
     0.039     0.496   0.238815E-01
     0.039     0.504   0.232187E-01
     0.039     0.512   0.225711E-01
     0.039     0.520   0.219389E-01
     0.039     0.528   0.213211E-01
     0.039     0.535   0.207178E-01
     0.039     0.543   0.201283E-01
     0.039     0.551   0.195525E-01
     0.039     0.559   0.189898E-01
     0.039     0.567   0.184401E-01
     0.039     0.575   0.179027E-01
     0.039     0.583   0.173778E-01
     0.039     0.591   0.168644E-01
     0.039     0.598   0.163628E-01
     0.039     0.606   0.158723E-01
     0.039     0.614   0.153928E-01
     0.039     0.622   0.149237E-01
     0.039     0.630   0.144651E-01
     0.039     0.638   0.140164E-01
     0.039     0.646   0.135775E-01
     0.039     0.654   0.131479E-01
     0.039     0.661   0.127277E-01
     0.039     0.669   0.123161E-01
     0.039     0.677   0.119134E-01
     0.039     0.685   0.115188E-01
     0.039     0.693   0.111325E-01
     0.039     0.701   0.107539E-01
     0.039     0.709   0.103830E-01
     0.039     0.717   0.100194E-01
     0.039     0.724   0.966296E-02
     0.039     0.732   0.931327E-02
     0.039     0.740   0.897037E-02
     0.039     0.748   0.863371E-02
     0.039     0.756   0.830338E-02
     0.039     0.764   0.797886E-02
     0.039     0.772   0.766020E-02
     0.039     0.780   0.734693E-02
     0.039     0.787   0.703907E-02
     0.039     0.795   0.673618E-02
     0.039     0.803   0.643828E-02
     0.039     0.811   0.614492E-02
     0.039     0.819   0.585614E-02
     0.039     0.827   0.557151E-02
     0.039     0.835   0.529104E-02
     0.039     0.843   0.501432E-02
     0.039     0.850   0.474137E-02
     0.039     0.858   0.447179E-02
     0.039     0.866   0.420557E-02
     0.039     0.874   0.394235E-02
     0.039     0.882   0.368211E-02
     0.039     0.890   0.342449E-02
     0.039     0.898   0.316947E-02
     0.039     0.906   0.291672E-02
     0.039     0.913   0.266617E-02
     0.039     0.921   0.241754E-02
     0.039     0.929   0.217074E-02
     0.039     0.937   0.192550E-02
     0.039     0.945   0.168172E-02
     0.039     0.953   0.143916E-02
     0.039     0.961   0.119768E-02
     0.039     0.969   0.957075E-03
     0.039     0.976   0.717194E-03
     0.039     0.984   0.477829E-03
     0.039     0.992   0.238829E-03
     0.039     1.000    0.00000    
     0.047     0.000   0.147877    
     0.047     0.008   0.144220    
     0.047     0.016   0.140650    
     0.047     0.024   0.137167    
     0.047     0.031   0.133768    
     0.047     0.039   0.130451    
     0.047     0.047   0.127214    
     0.047     0.055   0.124055    
     0.047     0.063   0.120972    
     0.047     0.071   0.117963    
     0.047     0.079   0.115027    
     0.047     0.087   0.112162    
     0.047     0.094   0.109365    
     0.047     0.102   0.106637    
     0.047     0.110   0.103973    
     0.047     0.118   0.101374    
     0.047     0.126   0.988380E-01
     0.047     0.134   0.963627E-01
     0.047     0.142   0.939469E-01
     0.047     0.150   0.915893E-01
     0.047     0.157   0.892884E-01
     0.047     0.165   0.870430E-01
     0.047     0.173   0.848515E-01
     0.047     0.181   0.827128E-01
     0.047     0.189   0.806254E-01
     0.047     0.197   0.785884E-01
     0.047     0.205   0.766002E-01
     0.047     0.213   0.746600E-01
     0.047     0.220   0.727662E-01
     0.047     0.228   0.709181E-01
     0.047     0.236   0.691143E-01
     0.047     0.244   0.673539E-01
     0.047     0.252   0.656357E-01
     0.047     0.260   0.639589E-01
     0.047     0.268   0.623221E-01
     0.047     0.276   0.607249E-01
     0.047     0.283   0.591657E-01
     0.047     0.291   0.576442E-01
     0.047     0.299   0.561590E-01
     0.047     0.307   0.547095E-01
     0.047     0.315   0.532946E-01
     0.047     0.323   0.519138E-01
     0.047     0.331   0.505659E-01
     0.047     0.339   0.492504E-01
     0.047     0.346   0.479662E-01
     0.047     0.354   0.467129E-01
     0.047     0.362   0.454894E-01
     0.047     0.370   0.442953E-01
     0.047     0.378   0.431295E-01
     0.047     0.386   0.419917E-01
     0.047     0.394   0.408808E-01
     0.047     0.402   0.397967E-01
     0.047     0.409   0.387380E-01
     0.047     0.417   0.377049E-01
     0.047     0.425   0.366960E-01
     0.047     0.433   0.357113E-01
     0.047     0.441   0.347496E-01
     0.047     0.449   0.338110E-01
     0.047     0.457   0.328944E-01
     0.047     0.465   0.319996E-01
     0.047     0.472   0.311257E-01
     0.047     0.480   0.302726E-01
     0.047     0.488   0.294393E-01