Title="Temperature Data"
Variables="X","Y","T"
 
Zone I=    50, J=    50, F=POINT
     0.000     0.000    0.00000    
     0.000     0.020    0.00000    
     0.000     0.041    0.00000    
     0.000     0.061    0.00000    
     0.000     0.082    0.00000    
     0.000     0.102    0.00000    
     0.000     0.122    0.00000    
     0.000     0.143    0.00000    
     0.000     0.163    0.00000    
     0.000     0.184    0.00000    
     0.000     0.204    0.00000    
     0.000     0.224    0.00000    
     0.000     0.245    0.00000    
     0.000     0.265    0.00000    
     0.000     0.286    0.00000    
     0.000     0.306    0.00000    
     0.000     0.327    0.00000    
     0.000     0.347    0.00000    
     0.000     0.367    0.00000    
     0.000     0.388    0.00000    
     0.000     0.408    0.00000    
     0.000     0.429    0.00000    
     0.000     0.449    0.00000    
     0.000     0.469    0.00000    
     0.000     0.490    0.00000    
     0.000     0.510    0.00000    
     0.000     0.531    0.00000    
     0.000     0.551    0.00000    
     0.000     0.571    0.00000    
     0.000     0.592    0.00000    
     0.000     0.612    0.00000    
     0.000     0.633    0.00000    
     0.000     0.653    0.00000    
     0.000     0.673    0.00000    
     0.000     0.694    0.00000    
     0.000     0.714    0.00000    
     0.000     0.735    0.00000    
     0.000     0.755    0.00000    
     0.000     0.776    0.00000    
     0.000     0.796    0.00000    
     0.000     0.816    0.00000    
     0.000     0.837    0.00000    
     0.000     0.857    0.00000    
     0.000     0.878    0.00000    
     0.000     0.898    0.00000    
     0.000     0.918    0.00000    
     0.000     0.939    0.00000    
     0.000     0.959    0.00000    
     0.000     0.980    0.00000    
     0.000     1.000    0.00000    
     0.020     0.000   0.640702E-01
     0.020     0.020   0.558146E-01
     0.020     0.041   0.479950E-01
     0.020     0.061   0.407606E-01
     0.020     0.082   0.342192E-01
     0.020     0.102   0.284290E-01
     0.020     0.122   0.234015E-01
     0.020     0.143   0.191094E-01
     0.020     0.163   0.154980E-01
     0.020     0.184   0.124966E-01
     0.020     0.204   0.100280E-01
     0.020     0.224   0.801484E-02
     0.020     0.245   0.638472E-02
     0.020     0.265   0.507236E-02
     0.020     0.286   0.402077E-02
     0.020     0.306   0.318134E-02
     0.020     0.327   0.251335E-02
     0.020     0.347   0.198311E-02
     0.020     0.367   0.156305E-02
     0.020     0.388   0.123083E-02
     0.020     0.408   0.968439E-03
     0.020     0.429   0.761420E-03
     0.020     0.449   0.598245E-03
     0.020     0.469   0.469726E-03
     0.020     0.490   0.368577E-03
     0.020     0.510   0.289015E-03
     0.020     0.531   0.226473E-03
     0.020     0.551   0.177335E-03
     0.020     0.571   0.138753E-03
     0.020     0.592   0.108474E-03
     0.020     0.612   0.847284E-04
     0.020     0.633   0.661159E-04
     0.020     0.653   0.515392E-04
     0.020     0.673   0.401299E-04
     0.020     0.694   0.312085E-04
     0.020     0.714   0.242370E-04
     0.020     0.735   0.187953E-04
     0.020     0.755   0.145505E-04
     0.020     0.776   0.112430E-04
     0.020     0.796   0.866692E-05
     0.020     0.816   0.666191E-05
     0.020     0.837   0.510047E-05
     0.020     0.857   0.388332E-05
     0.020     0.878   0.293105E-05
     0.020     0.898   0.218147E-05
     0.020     0.918   0.158413E-05
     0.020     0.939   0.109871E-05
     0.020     0.959   0.691414E-06
     0.020     0.980   0.333716E-06
     0.020     1.000    0.00000    
     0.041     0.000   0.127877    
     0.041     0.020   0.111193    
     0.041     0.041   0.954048E-01
     0.041     0.061   0.808286E-01
     0.041     0.082   0.676872E-01
     0.041     0.102   0.560957E-01
     0.041     0.122   0.460681E-01
     0.041     0.143   0.375384E-01
     0.041     0.163   0.303863E-01
     0.041     0.184   0.244610E-01
     0.041     0.204   0.196009E-01
     0.041     0.224   0.156472E-01
     0.041     0.245   0.124522E-01
     0.041     0.265   0.988447E-02
     0.041     0.286   0.782990E-02
     0.041     0.306   0.619180E-02
     0.041     0.327   0.488949E-02
     0.041     0.347   0.385655E-02
     0.041     0.367   0.303877E-02
     0.041     0.388   0.239234E-02
     0.041     0.408   0.188197E-02
     0.041     0.429   0.147946E-02
     0.041     0.449   0.116226E-02
     0.041     0.469   0.912494E-03
     0.041     0.490   0.715943E-03
     0.041     0.510   0.561368E-03
     0.041     0.531   0.439865E-03
     0.041     0.551   0.344418E-03
     0.041     0.571   0.269473E-03
     0.041     0.592   0.210666E-03
     0.041     0.612   0.164544E-03
     0.041     0.633   0.128398E-03
     0.041     0.653   0.100087E-03
     0.041     0.673   0.779314E-04
     0.041     0.694   0.606043E-04
     0.041     0.714   0.470673E-04
     0.041     0.735   0.364985E-04
     0.041     0.755   0.282564E-04
     0.041     0.776   0.218325E-04
     0.041     0.796   0.168307E-04
     0.041     0.816   0.129364E-04
     0.041     0.837   0.990486E-05
     0.041     0.857   0.754078E-05
     0.041     0.878   0.569197E-05
     0.041     0.898   0.423602E-05
     0.041     0.918   0.307632E-05
     0.041     0.939   0.213349E-05
     0.041     0.959   0.134270E-05
     0.041     0.980   0.648012E-06
     0.041     1.000    0.00000    
     0.061     0.000   0.191159    
     0.061     0.020   0.165676    
     0.061     0.041   0.141603    
     0.061     0.061   0.119462    
     0.061     0.082   0.996059E-01
     0.061     0.102   0.821990E-01
     0.061     0.122   0.672373E-01
     0.061     0.143   0.545905E-01
     0.061     0.163   0.440485E-01
     0.061     0.184   0.353611E-01
     0.061     0.204   0.282685E-01
     0.061     0.224   0.225217E-01
     0.061     0.245   0.178935E-01
     0.061     0.265   0.141844E-01
     0.061     0.286   0.112236E-01
     0.061     0.306   0.886751E-02
     0.061     0.327   0.699732E-02
     0.061     0.347   0.551583E-02
     0.061     0.367   0.434416E-02
     0.061     0.388   0.341874E-02
     0.061     0.408   0.268860E-02
     0.061     0.429   0.211304E-02
     0.061     0.449   0.165970E-02
     0.061     0.469   0.130283E-02
     0.061     0.490   0.102208E-02
     0.061     0.510   0.801325E-03
     0.061     0.531   0.627843E-03
     0.061     0.551   0.491571E-03
     0.061     0.571   0.384592E-03
     0.061     0.592   0.300646E-03
     0.061     0.612   0.234821E-03
     0.061     0.633   0.183230E-03
     0.061     0.653   0.142828E-03
     0.061     0.673   0.111207E-03
     0.061     0.694   0.864828E-04
     0.061     0.714   0.671629E-04
     0.061     0.735   0.520829E-04
     0.061     0.755   0.403199E-04
     0.061     0.776   0.311545E-04
     0.061     0.796   0.240159E-04
     0.061     0.816   0.184600E-04
     0.061     0.837   0.141332E-04
     0.061     0.857   0.107605E-04
     0.061     0.878   0.812179E-05
     0.061     0.898   0.604471E-05
     0.061     0.918   0.438952E-05
     0.061     0.939   0.304445E-05
     0.061     0.959   0.191586E-05
     0.061     0.980   0.924703E-06
     0.061     1.000    0.00000    
     0.082     0.000   0.253655    
     0.082     0.020   0.218749    
     0.082     0.041   0.185869    
     0.082     0.061   0.155811    
     0.082     0.082   0.129076    
     0.082     0.102   0.105858    
     0.082     0.122   0.860924E-01
     0.082     0.143   0.695390E-01
     0.082     0.163   0.558574E-01
     0.082     0.184   0.446676E-01
     0.082     0.204   0.355917E-01
     0.082     0.224   0.282789E-01
     0.082     0.245   0.224171E-01
     0.082     0.265   0.177377E-01
     0.082     0.286   0.140141E-01
     0.082     0.306   0.110588E-01
     0.082     0.327   0.871793E-02
     0.082     0.347   0.686676E-02
     0.082     0.367   0.540472E-02
     0.082     0.388   0.425124E-02
     0.082     0.408   0.334196E-02
     0.082     0.429   0.262570E-02
     0.082     0.449   0.206183E-02
     0.082     0.469   0.161818E-02
     0.082     0.490   0.126926E-02
     0.082     0.510   0.995000E-03
     0.082     0.531   0.779503E-03
     0.082     0.551   0.610270E-03
     0.082     0.571   0.477423E-03
     0.082     0.592   0.373201E-03
     0.082     0.612   0.291474E-03
     0.082     0.633   0.227433E-03
     0.082     0.653   0.177277E-03
     0.082     0.673   0.138029E-03
     0.082     0.694   0.107337E-03
     0.082     0.714   0.833597E-04
     0.082     0.735   0.646403E-04
     0.082     0.755   0.500425E-04
     0.082     0.776   0.386653E-04
     0.082     0.796   0.298069E-04
     0.082     0.816   0.229100E-04
     0.082     0.837   0.175411E-04
     0.082     0.857   0.133543E-04
     0.082     0.878   0.100802E-04
     0.082     0.898   0.750173E-05
     0.082     0.918   0.544795E-05
     0.082     0.939   0.377826E-05
     0.082     0.959   0.237783E-05
     0.082     0.980   0.114758E-05
     0.082     1.000    0.00000    
     0.102     0.000   0.315108    
     0.102     0.020   0.269798    
     0.102     0.041   0.227314    
     0.102     0.061   0.188837    
     0.102     0.082   0.155031    
     0.102     0.102   0.126065    
     0.102     0.122   0.101736    
     0.102     0.143   0.816171E-01
     0.102     0.163   0.651758E-01
     0.102     0.184   0.518616E-01
     0.102     0.204   0.411536E-01
     0.102     0.224   0.325868E-01
     0.102     0.245   0.257602E-01
     0.102     0.265   0.203368E-01
     0.102     0.286   0.160383E-01
     0.102     0.306   0.126375E-01
     0.102     0.327   0.995069E-02
     0.102     0.347   0.783034E-02
     0.102     0.367   0.615851E-02
     0.102     0.388   0.484123E-02
     0.102     0.408   0.380395E-02
     0.102     0.429   0.298753E-02
     0.102     0.449   0.234526E-02
     0.102     0.469   0.184016E-02
     0.102     0.490   0.144312E-02
     0.102     0.510   0.113111E-02
     0.102     0.531   0.886034E-03
     0.102     0.551   0.693600E-03
     0.102     0.571   0.542578E-03
     0.102     0.592   0.424102E-03
     0.102     0.612   0.331217E-03
     0.102     0.633   0.258430E-03
     0.102     0.653   0.201435E-03
     0.102     0.673   0.156832E-03
     0.102     0.694   0.121960E-03
     0.102     0.714   0.947118E-04
     0.102     0.735   0.734446E-04
     0.102     0.755   0.568560E-04
     0.102     0.776   0.439311E-04
     0.102     0.796   0.338646E-04
     0.102     0.816   0.260299E-04
     0.102     0.837   0.199287E-04
     0.102     0.857   0.151729E-04
     0.102     0.878   0.114521E-04
     0.102     0.898   0.852331E-05
     0.102     0.918   0.618940E-05
     0.102     0.939   0.429279E-05
     0.102     0.959   0.270143E-05
     0.102     0.980   0.130386E-05
     0.102     1.000    0.00000    
     0.122     0.000   0.375267    
     0.122     0.020   0.318022    
     0.122     0.041   0.264751    
     0.122     0.061   0.217192    
     0.122     0.082   0.176147    
     0.122     0.102   0.141637    
     0.122     0.122   0.113172    
     0.122     0.143   0.900186E-01
     0.122     0.163   0.713689E-01
     0.122     0.184   0.564510E-01
     0.122     0.204   0.445763E-01
     0.122     0.224   0.351564E-01
     0.122     0.245   0.277020E-01
     0.122     0.265   0.218131E-01
     0.122     0.286   0.171668E-01
     0.122     0.306   0.135042E-01
     0.122     0.327   0.106191E-01
     0.122     0.347   0.834750E-02
     0.122     0.367   0.655972E-02
     0.122     0.388   0.515319E-02
     0.122     0.408   0.404691E-02
     0.122     0.429   0.317702E-02
     0.122     0.449   0.249317E-02
     0.122     0.469   0.195571E-02
     0.122     0.490   0.153340E-02
     0.122     0.510   0.120168E-02
     0.122     0.531   0.941183E-03
     0.122     0.551   0.736701E-03
     0.122     0.571   0.576240E-03
     0.122     0.592   0.450390E-03
     0.122     0.612   0.351724E-03
     0.122     0.633   0.274423E-03
     0.122     0.653   0.213890E-03
     0.122     0.673   0.166529E-03
     0.122     0.694   0.129494E-03
     0.122     0.714   0.100564E-03
     0.122     0.735   0.779792E-04
     0.122     0.755   0.603679E-04
     0.122     0.776   0.466424E-04
     0.122     0.796   0.359559E-04
     0.122     0.816   0.276360E-04
     0.122     0.837   0.211593E-04
     0.122     0.857   0.161089E-04
     0.122     0.878   0.121593E-04
     0.122     0.898   0.904900E-05
     0.122     0.918   0.657160E-05
     0.122     0.939   0.455752E-05
     0.122     0.959   0.286825E-05
     0.122     0.980   0.138427E-05
     0.122     1.000    0.00000    
     0.143     0.000   0.433884    
     0.143     0.020   0.362271    
     0.143     0.041   0.296479    
     0.143     0.061   0.239032    
     0.143     0.082   0.190730    
     0.143     0.102   0.151163    
     0.143     0.122   0.119300    
     0.143     0.143   0.939176E-01
     0.143     0.163   0.738319E-01
     0.143     0.184   0.579992E-01
     0.143     0.204   0.455462E-01
     0.143     0.224   0.357627E-01
     0.143     0.245   0.280804E-01
     0.143     0.265   0.220491E-01
     0.143     0.286   0.173139E-01
     0.143     0.306   0.135958E-01
     0.143     0.327   0.106761E-01
     0.143     0.347   0.838300E-02
     0.143     0.367   0.658183E-02
     0.143     0.388   0.516695E-02
     0.143     0.408   0.405548E-02
     0.143     0.429   0.318235E-02
     0.143     0.449   0.249649E-02
     0.143     0.469   0.195777E-02
     0.143     0.490   0.153469E-02
     0.143     0.510   0.120248E-02
     0.143     0.531   0.941685E-03
     0.143     0.551   0.737007E-03
     0.143     0.571   0.576436E-03
     0.143     0.592   0.450507E-03
     0.143     0.612   0.351801E-03
     0.143     0.633   0.274467E-03
     0.143     0.653   0.213921E-03
     0.143     0.673   0.166545E-03
     0.143     0.694   0.129507E-03
     0.143     0.714   0.100569E-03
     0.143     0.735   0.779849E-04
     0.143     0.755   0.603695E-04
     0.143     0.776   0.466450E-04
     0.143     0.796   0.359561E-04
     0.143     0.816   0.276373E-04
     0.143     0.837   0.211592E-04
     0.143     0.857   0.161096E-04
     0.143     0.878   0.121591E-04
     0.143     0.898   0.904941E-05
     0.143     0.918   0.657142E-05
     0.143     0.939   0.455774E-05
     0.143     0.959   0.286816E-05
     0.143     0.980   0.138433E-05
     0.143     1.000    0.00000    
     0.163     0.000   0.490718    
     0.163     0.020   0.400701    
     0.163     0.041   0.319861    
     0.163     0.061   0.251727    
     0.163     0.082   0.196581    
     0.163     0.102   0.152985    
     0.163     0.122   0.118947    
     0.163     0.143   0.925218E-01
     0.163     0.163   0.720436E-01
     0.163     0.184   0.561695E-01
     0.163     0.204   0.438487E-01
     0.163     0.224   0.342699E-01
     0.163     0.245   0.268100E-01
     0.163     0.265   0.209912E-01
     0.163     0.286   0.164459E-01
     0.163     0.306   0.128914E-01
     0.163     0.327   0.101088E-01
     0.163     0.347   0.792877E-02
     0.163     0.367   0.621977E-02
     0.163     0.388   0.487937E-02
     0.163     0.408   0.382768E-02
     0.163     0.429   0.300231E-02
     0.163     0.449   0.235445E-02
     0.163     0.469   0.184589E-02
     0.163     0.490   0.144667E-02
     0.163     0.510   0.113333E-02
     0.163     0.531   0.887410E-03
     0.163     0.551   0.694463E-03
     0.163     0.571   0.543109E-03
     0.163     0.592   0.424438E-03
     0.163     0.612   0.331422E-03
     0.163     0.633   0.258561E-03
     0.163     0.653   0.201514E-03
     0.163     0.673   0.156884E-03
     0.163     0.694   0.121989E-03
     0.163     0.714   0.947325E-04
     0.163     0.735   0.734554E-04
     0.163     0.755   0.568645E-04
     0.163     0.776   0.439348E-04
     0.163     0.796   0.338682E-04
     0.163     0.816   0.260311E-04
     0.163     0.837   0.199304E-04
     0.163     0.857   0.151732E-04
     0.163     0.878   0.114529E-04
     0.163     0.898   0.852329E-05
     0.163     0.918   0.618979E-05
     0.163     0.939   0.429272E-05
     0.163     0.959   0.270160E-05
     0.163     0.980   0.130383E-05
     0.163     1.000    0.00000    
     0.184     0.000   0.545535    
     0.184     0.020   0.429955    
     0.184     0.041   0.330538    
     0.184     0.061   0.251435    
     0.184     0.082   0.190882    
     0.184     0.102   0.145251    
     0.184     0.122   0.110983    
     0.184     0.143   0.851804E-01
     0.184     0.163   0.656527E-01
     0.184     0.184   0.507884E-01
     0.184     0.204   0.394111E-01
     0.184     0.224   0.306600E-01
     0.184     0.245   0.239007E-01
     0.184     0.265   0.186617E-01
     0.184     0.286   0.145895E-01
     0.184     0.306   0.114170E-01
     0.184     0.327   0.894093E-02
     0.184     0.347   0.700556E-02
     0.184     0.367   0.549113E-02
     0.184     0.388   0.430501E-02
     0.184     0.408   0.337544E-02
     0.184     0.429   0.264653E-02
     0.184     0.449   0.207480E-02
     0.184     0.469   0.162624E-02
     0.184     0.490   0.127429E-02
     0.184     0.510   0.998123E-03
     0.184     0.531   0.781452E-03
     0.184     0.551   0.611478E-03
     0.184     0.571   0.478180E-03
     0.184     0.592   0.373668E-03
     0.184     0.612   0.291768E-03
     0.184     0.633   0.227612E-03
     0.184     0.653   0.177392E-03
     0.184     0.673   0.138098E-03
     0.184     0.694   0.107382E-03
     0.184     0.714   0.833857E-04
     0.184     0.735   0.646584E-04
     0.184     0.755   0.500522E-04
     0.184     0.776   0.386726E-04
     0.184     0.796   0.298103E-04
     0.184     0.816   0.229131E-04
     0.184     0.837   0.175422E-04
     0.184     0.857   0.133557E-04
     0.184     0.878   0.100804E-04
     0.184     0.898   0.750237E-05
     0.184     0.918   0.544798E-05
     0.184     0.939   0.377855E-05
     0.184     0.959   0.237781E-05
     0.184     0.980   0.114766E-05
     0.184     1.000    0.00000    
     0.204     0.000   0.598111    
     0.204     0.020   0.443047    
     0.204     0.041   0.320901    
     0.204     0.061   0.232593    
     0.204     0.082   0.170261    
     0.204     0.102   0.126156    
     0.204     0.122   0.945544E-01
     0.204     0.143   0.715656E-01
     0.204     0.163   0.545998E-01
     0.204     0.184   0.419217E-01
     0.204     0.204   0.323490E-01
     0.204     0.224   0.250601E-01
     0.204     0.245   0.194729E-01
     0.204     0.265   0.151672E-01
     0.204     0.286   0.118352E-01
     0.204     0.306   0.924813E-02
     0.204     0.327   0.723420E-02
     0.204     0.347   0.566326E-02
     0.204     0.367   0.443591E-02
     0.204     0.388   0.347585E-02
     0.204     0.408   0.272414E-02
     0.204     0.429   0.213517E-02
     0.204     0.449   0.167346E-02
     0.204     0.469   0.131140E-02
     0.204     0.490   0.102741E-02
     0.204     0.510   0.804647E-03
     0.204     0.531   0.629906E-03
     0.204     0.551   0.492859E-03
     0.204     0.571   0.385390E-03
     0.204     0.592   0.301147E-03
     0.204     0.612   0.235129E-03
     0.204     0.633   0.183425E-03
     0.204     0.653   0.142947E-03
     0.204     0.673   0.111283E-03
     0.204     0.694   0.865282E-04
     0.204     0.714   0.671929E-04
     0.204     0.735   0.521001E-04
     0.204     0.755   0.403318E-04
     0.204     0.776   0.311608E-04
     0.204     0.796   0.240208E-04
     0.204     0.816   0.184622E-04
     0.204     0.837   0.141353E-04
     0.204     0.857   0.107612E-04
     0.204     0.878   0.812270E-05
     0.204     0.898   0.604490E-05
     0.204     0.918   0.438993E-05
     0.204     0.939   0.304448E-05
     0.204     0.959   0.191602E-05
     0.204     0.980   0.924702E-06
     0.204     1.000    0.00000    
     0.224     0.000   0.648228    
     0.224     0.020   0.423221    
     0.224     0.041   0.277429    
     0.224     0.061   0.187774    
     0.224     0.082   0.131413    
     0.224     0.102   0.945600E-01
     0.224     0.122   0.695135E-01
     0.224     0.143   0.519287E-01
     0.224     0.163   0.392605E-01
     0.224     0.184   0.299509E-01
     0.224     0.204   0.230043E-01
     0.224     0.224   0.177599E-01
     0.224     0.245   0.137649E-01
     0.224     0.265   0.107006E-01
     0.224     0.286   0.833748E-02
     0.224     0.306   0.650757E-02
     0.224     0.327   0.508597E-02
     0.224     0.347   0.397880E-02
     0.224     0.367   0.311486E-02
     0.224     0.388   0.243969E-02
     0.224     0.408   0.191145E-02
     0.224     0.429   0.149779E-02
     0.224     0.449   0.117368E-02
     0.224     0.469   0.919596E-03
     0.224     0.490   0.720367E-03
     0.224     0.510   0.564118E-03
     0.224     0.531   0.441580E-03
     0.224     0.551   0.345482E-03
     0.224     0.571   0.270138E-03
     0.224     0.592   0.211077E-03
     0.224     0.612   0.164802E-03
     0.224     0.633   0.128557E-03
     0.224     0.653   0.100187E-03
     0.224     0.673   0.779925E-04
     0.224     0.694   0.606436E-04
     0.224     0.714   0.470906E-04
     0.224     0.735   0.365140E-04
     0.224     0.755   0.282652E-04
     0.224     0.776   0.218387E-04
     0.224     0.796   0.168339E-04
     0.224     0.816   0.129390E-04
     0.224     0.837   0.990598E-05
     0.224     0.857   0.754187E-05
     0.224     0.878   0.569233E-05
     0.224     0.898   0.423650E-05
     0.224     0.918   0.307641E-05
     0.224     0.939   0.213370E-05
     0.224     0.959   0.134272E-05
     0.224     0.980   0.648070E-06
     0.224     1.000    0.00000    
     0.245     0.000   0.695683    
     0.245     0.020   0.324180    
     0.245     0.041   0.177818    
     0.245     0.061   0.109662    
     0.245     0.082   0.730582E-01
     0.245     0.102   0.511574E-01
     0.245     0.122   0.370116E-01
     0.245     0.143   0.273759E-01
     0.245     0.163   0.205635E-01
     0.245     0.184   0.156181E-01
     0.245     0.204   0.119583E-01
     0.245     0.224   0.921125E-02
     0.245     0.245   0.712735E-02
     0.245     0.265   0.553375E-02
     0.245     0.286   0.430761E-02
     0.245     0.306   0.335974E-02
     0.245     0.327   0.262433E-02
     0.245     0.347   0.205216E-02
     0.245     0.367   0.160602E-02
     0.245     0.388   0.125757E-02
     0.245     0.408   0.985078E-03
     0.245     0.429   0.771778E-03
     0.245     0.449   0.604689E-03
     0.245     0.469   0.473739E-03
     0.245     0.490   0.371073E-03
     0.245     0.510   0.290570E-03
     0.245     0.531   0.227440E-03
     0.245     0.551   0.177938E-03
     0.245     0.571   0.139127E-03
     0.245     0.592   0.108708E-03
     0.245     0.612   0.848729E-04
     0.245     0.633   0.662069E-04
     0.245     0.653   0.515949E-04
     0.245     0.673   0.401653E-04
     0.245     0.694   0.312298E-04
     0.245     0.714   0.242509E-04
     0.245     0.735   0.188035E-04
     0.245     0.755   0.145560E-04
     0.245     0.776   0.112461E-04
     0.245     0.796   0.866916E-05
     0.245     0.816   0.666301E-05
     0.245     0.837   0.510140E-05
     0.245     0.857   0.388370E-05
     0.245     0.878   0.293145E-05
     0.245     0.898   0.218158E-05
     0.245     0.918   0.158430E-05
     0.245     0.939   0.109874E-05
     0.245     0.959   0.691481E-06
     0.245     0.980   0.333720E-06
     0.245     1.000    0.00000    
     0.265     0.000   0.740278    
     0.265     0.020   0.380846    
     0.265     0.041   0.233514    
     0.265     0.061   0.160347    
     0.265     0.082   0.117611    
     0.265     0.102   0.895406E-01
     0.265     0.122   0.696285E-01
     0.265     0.143   0.548088E-01
     0.265     0.163   0.434501E-01
     0.265     0.184   0.345874E-01
     0.265     0.204   0.275971E-01
     0.265     0.224   0.220478E-01
     0.265     0.245   0.176255E-01
     0.265     0.265   0.140936E-01
     0.265     0.286   0.112694E-01
     0.265     0.306   0.900965E-02
     0.265     0.327   0.720117E-02
     0.265     0.347   0.575381E-02
     0.265     0.367   0.459558E-02
     0.265     0.388   0.366893E-02
     0.265     0.408   0.292771E-02
     0.265     0.429   0.233503E-02
     0.265     0.449   0.186124E-02
     0.265     0.469   0.148266E-02
     0.265     0.490   0.118025E-02
     0.265     0.510   0.938820E-03
     0.265     0.531   0.746147E-03
     0.265     0.551   0.592486E-03
     0.265     0.571   0.469998E-03
     0.265     0.592   0.372440E-03
     0.265     0.612   0.294783E-03
     0.265     0.633   0.233031E-03
     0.265     0.653   0.183961E-03
     0.265     0.673   0.145017E-03
     0.265     0.694   0.114133E-03
     0.265     0.714   0.896768E-04
     0.265     0.735   0.703273E-04
     0.265     0.755   0.550419E-04
     0.265     0.776   0.429761E-04
     0.265     0.796   0.334652E-04
     0.265     0.816   0.259696E-04
     0.265     0.837   0.200652E-04
     0.265     0.857   0.154062E-04
     0.265     0.878   0.117203E-04
     0.265     0.898   0.878372E-05
     0.265     0.918   0.641791E-05
     0.265     0.939   0.447310E-05
     0.265     0.959   0.282559E-05
     0.265     0.980   0.136679E-05
     0.265     1.000    0.00000    
     0.286     0.000   0.781831    
     0.286     0.020   0.549594    
     0.286     0.041   0.392863    
     0.286     0.061   0.290264    
     0.286     0.082   0.220558    
     0.286     0.102   0.170924    
     0.286     0.122   0.134166    
     0.286     0.143   0.106158    
     0.286     0.163   0.844065E-01
     0.286     0.184   0.673047E-01
     0.286     0.204   0.537556E-01
     0.286     0.224   0.429711E-01
     0.286     0.245   0.343633E-01
     0.286     0.265   0.274822E-01
     0.286     0.286   0.219769E-01
     0.286     0.306   0.175708E-01
     0.286     0.327   0.140439E-01
     0.286     0.347   0.112211E-01
     0.286     0.367   0.896221E-02
     0.286     0.388   0.715490E-02
     0.286     0.408   0.570934E-02
     0.286     0.429   0.455343E-02
     0.286     0.449   0.362948E-02
     0.286     0.469   0.289117E-02
     0.286     0.490   0.230147E-02
     0.286     0.510   0.183064E-02
     0.286     0.531   0.145495E-02
     0.286     0.551   0.115529E-02
     0.286     0.571   0.916462E-03
     0.286     0.592   0.726213E-03
     0.286     0.612   0.574802E-03
     0.286     0.633   0.454378E-03
     0.286     0.653   0.358708E-03
     0.286     0.673   0.282760E-03
     0.286     0.694   0.222549E-03
     0.286     0.714   0.174854E-03
     0.286     0.735   0.137132E-03
     0.286     0.755   0.107322E-03
     0.286     0.776   0.837998E-04
     0.286     0.796   0.652506E-04
     0.286     0.816   0.506388E-04
     0.286     0.837   0.391229E-04
     0.286     0.857   0.300410E-04
     0.286     0.878   0.228520E-04
     0.286     0.898   0.171278E-04
     0.286     0.918   0.125134E-04
     0.286     0.939   0.872232E-05
     0.286     0.959   0.550922E-05
     0.286     0.980   0.266518E-05
     0.286     1.000    0.00000    
     0.306     0.000   0.820172    
     0.306     0.020   0.642835    
     0.306     0.041   0.498083    
     0.306     0.061   0.387289    
     0.306     0.082   0.303434    
     0.306     0.102   0.239436    
     0.306     0.122   0.189957    
     0.306     0.143   0.151256    
     0.306     0.163   0.120717    
     0.306     0.184   0.964738E-01
     0.306     0.204   0.771544E-01
     0.306     0.224   0.617225E-01
     0.306     0.245   0.493795E-01
     0.306     0.265   0.395003E-01
     0.306     0.286   0.315907E-01
     0.306     0.306   0.252579E-01
     0.306     0.327   0.201879E-01
     0.306     0.347   0.161298E-01
     0.306     0.367   0.128822E-01
     0.306     0.388   0.102841E-01
     0.306     0.408   0.820597E-02
     0.306     0.429   0.654442E-02
     0.306     0.449   0.521629E-02
     0.306     0.469   0.415511E-02
     0.306     0.490   0.330752E-02
     0.306     0.510   0.263086E-02
     0.306     0.531   0.209088E-02
     0.306     0.551   0.166025E-02
     0.306     0.571   0.131700E-02
     0.306     0.592   0.104361E-02
     0.306     0.612   0.826004E-03
     0.306     0.633   0.652965E-03
     0.306     0.653   0.515465E-03
     0.306     0.673   0.406338E-03
     0.306     0.694   0.319800E-03
     0.306     0.714   0.251273E-03
     0.306     0.735   0.197056E-03
     0.306     0.755   0.154226E-03
     0.306     0.776   0.120417E-03
     0.306     0.796   0.937682E-04
     0.306     0.816   0.727658E-04
     0.306     0.837   0.562217E-04
     0.306     0.857   0.431673E-04
     0.306     0.878   0.328397E-04
     0.306     0.898   0.246115E-04
     0.306     0.918   0.179826E-04
     0.306     0.939   0.125334E-04
     0.306     0.959   0.791714E-05
     0.306     0.980   0.382967E-05
     0.306     1.000    0.00000    
     0.327     0.000   0.855143    
     0.327     0.020   0.703491    
     0.327     0.041   0.569346    
     0.327     0.061   0.457377    
     0.327     0.082   0.366456    
     0.327     0.102   0.293432    
     0.327     0.122   0.234976    
     0.327     0.143   0.188196    
     0.327     0.163   0.150737    
     0.327     0.184   0.120726    
     0.327     0.204   0.966724E-01
     0.327     0.224   0.773923E-01
     0.327     0.245   0.619393E-01
     0.327     0.265   0.495561E-01
     0.327     0.286   0.396354E-01
     0.327     0.306   0.316897E-01
     0.327     0.327   0.253278E-01
     0.327     0.347   0.202353E-01
     0.327     0.367   0.161602E-01
     0.327     0.388   0.129001E-01
     0.327     0.408   0.102929E-01
     0.327     0.429   0.820836E-02
     0.327     0.449   0.654232E-02
     0.327     0.469   0.521117E-02
     0.327     0.490   0.414807E-02
     0.327     0.510   0.329934E-02
     0.327     0.531   0.262213E-02
     0.327     0.551   0.208203E-02
     0.327     0.571   0.165158E-02
     0.327     0.592   0.130870E-02
     0.327     0.612   0.103583E-02