Title="Temperature Data"
Variables="X","Y","T"
 
Zone I=   128, J=   128, F=POINT
     0.000     0.000    0.00000    
     0.000     0.008    0.00000    
     0.000     0.016    0.00000    
     0.000     0.024    0.00000    
     0.000     0.031    0.00000    
     0.000     0.039    0.00000    
     0.000     0.047    0.00000    
     0.000     0.055    0.00000    
     0.000     0.063    0.00000    
     0.000     0.071    0.00000    
     0.000     0.079    0.00000    
     0.000     0.087    0.00000    
     0.000     0.094    0.00000    
     0.000     0.102    0.00000    
     0.000     0.110    0.00000    
     0.000     0.118    0.00000    
     0.000     0.126    0.00000    
     0.000     0.134    0.00000    
     0.000     0.142    0.00000    
     0.000     0.150    0.00000    
     0.000     0.157    0.00000    
     0.000     0.165    0.00000    
     0.000     0.173    0.00000    
     0.000     0.181    0.00000    
     0.000     0.189    0.00000    
     0.000     0.197    0.00000    
     0.000     0.205    0.00000    
     0.000     0.213    0.00000    
     0.000     0.220    0.00000    
     0.000     0.228    0.00000    
     0.000     0.236    0.00000    
     0.000     0.244    0.00000    
     0.000     0.252    0.00000    
     0.000     0.260    0.00000    
     0.000     0.268    0.00000    
     0.000     0.276    0.00000    
     0.000     0.283    0.00000    
     0.000     0.291    0.00000    
     0.000     0.299    0.00000    
     0.000     0.307    0.00000    
     0.000     0.315    0.00000    
     0.000     0.323    0.00000    
     0.000     0.331    0.00000    
     0.000     0.339    0.00000    
     0.000     0.346    0.00000    
     0.000     0.354    0.00000    
     0.000     0.362    0.00000    
     0.000     0.370    0.00000    
     0.000     0.378    0.00000    
     0.000     0.386    0.00000    
     0.000     0.394    0.00000    
     0.000     0.402    0.00000    
     0.000     0.409    0.00000    
     0.000     0.417    0.00000    
     0.000     0.425    0.00000    
     0.000     0.433    0.00000    
     0.000     0.441    0.00000    
     0.000     0.449    0.00000    
     0.000     0.457    0.00000    
     0.000     0.465    0.00000    
     0.000     0.472    0.00000    
     0.000     0.480    0.00000    
     0.000     0.488    0.00000    
     0.000     0.496    0.00000    
     0.000     0.504    0.00000    
     0.000     0.512    0.00000    
     0.000     0.520    0.00000    
     0.000     0.528    0.00000    
     0.000     0.535    0.00000    
     0.000     0.543    0.00000    
     0.000     0.551    0.00000    
     0.000     0.559    0.00000    
     0.000     0.567    0.00000    
     0.000     0.575    0.00000    
     0.000     0.583    0.00000    
     0.000     0.591    0.00000    
     0.000     0.598    0.00000    
     0.000     0.606    0.00000    
     0.000     0.614    0.00000    
     0.000     0.622    0.00000    
     0.000     0.630    0.00000    
     0.000     0.638    0.00000    
     0.000     0.646    0.00000    
     0.000     0.654    0.00000    
     0.000     0.661    0.00000    
     0.000     0.669    0.00000    
     0.000     0.677    0.00000    
     0.000     0.685    0.00000    
     0.000     0.693    0.00000    
     0.000     0.701    0.00000    
     0.000     0.709    0.00000    
     0.000     0.717    0.00000    
     0.000     0.724    0.00000    
     0.000     0.732    0.00000    
     0.000     0.740    0.00000    
     0.000     0.748    0.00000    
     0.000     0.756    0.00000    
     0.000     0.764    0.00000    
     0.000     0.772    0.00000    
     0.000     0.780    0.00000    
     0.000     0.787    0.00000    
     0.000     0.795    0.00000    
     0.000     0.803    0.00000    
     0.000     0.811    0.00000    
     0.000     0.819    0.00000    
     0.000     0.827    0.00000    
     0.000     0.835    0.00000    
     0.000     0.843    0.00000    
     0.000     0.850    0.00000    
     0.000     0.858    0.00000    
     0.000     0.866    0.00000    
     0.000     0.874    0.00000    
     0.000     0.882    0.00000    
     0.000     0.890    0.00000    
     0.000     0.898    0.00000    
     0.000     0.906    0.00000    
     0.000     0.913    0.00000    
     0.000     0.921    0.00000    
     0.000     0.929    0.00000    
     0.000     0.937    0.00000    
     0.000     0.945    0.00000    
     0.000     0.953    0.00000    
     0.000     0.961    0.00000    
     0.000     0.969    0.00000    
     0.000     0.976    0.00000    
     0.000     0.984    0.00000    
     0.000     0.992    0.00000    
     0.000     1.000    0.00000    
     0.008     0.000   0.247344E-01
     0.008     0.008   0.241236E-01
     0.008     0.016   0.235275E-01
     0.008     0.024   0.229459E-01
     0.008     0.031   0.223783E-01
     0.008     0.039   0.218244E-01
     0.008     0.047   0.212839E-01
     0.008     0.055   0.207564E-01
     0.008     0.063   0.202417E-01
     0.008     0.071   0.197394E-01
     0.008     0.079   0.192492E-01
     0.008     0.087   0.187709E-01
     0.008     0.094   0.183041E-01
     0.008     0.102   0.178485E-01
     0.008     0.110   0.174040E-01
     0.008     0.118   0.169702E-01
     0.008     0.126   0.165468E-01
     0.008     0.134   0.161336E-01
     0.008     0.142   0.157304E-01
     0.008     0.150   0.153370E-01
     0.008     0.157   0.149530E-01
     0.008     0.165   0.145782E-01
     0.008     0.173   0.142125E-01
     0.008     0.181   0.138555E-01
     0.008     0.189   0.135072E-01
     0.008     0.197   0.131672E-01
     0.008     0.205   0.128355E-01
     0.008     0.213   0.125117E-01
     0.008     0.220   0.121957E-01
     0.008     0.228   0.118872E-01
     0.008     0.236   0.115863E-01
     0.008     0.244   0.112925E-01
     0.008     0.252   0.110058E-01
     0.008     0.260   0.107259E-01
     0.008     0.268   0.104528E-01
     0.008     0.276   0.101862E-01
     0.008     0.283   0.992609E-02
     0.008     0.291   0.967214E-02
     0.008     0.299   0.942431E-02
     0.008     0.307   0.918238E-02
     0.008     0.315   0.894627E-02
     0.008     0.323   0.871578E-02
     0.008     0.331   0.849083E-02
     0.008     0.339   0.827123E-02
     0.008     0.346   0.805690E-02
     0.008     0.354   0.784766E-02
     0.008     0.362   0.764344E-02
     0.008     0.370   0.744405E-02
     0.008     0.378   0.724944E-02
     0.008     0.386   0.705943E-02
     0.008     0.394   0.687396E-02
     0.008     0.402   0.669287E-02
     0.008     0.409   0.651611E-02
     0.008     0.417   0.634349E-02
     0.008     0.425   0.617500E-02
     0.008     0.433   0.601045E-02
     0.008     0.441   0.584982E-02
     0.008     0.449   0.569294E-02
     0.008     0.457   0.553978E-02
     0.008     0.465   0.539018E-02
     0.008     0.472   0.524412E-02
     0.008     0.480   0.510145E-02
     0.008     0.488   0.496214E-02
     0.008     0.496   0.482604E-02
     0.008     0.504   0.469313E-02
     0.008     0.512   0.456327E-02
     0.008     0.520   0.443644E-02
     0.008     0.528   0.431250E-02
     0.008     0.535   0.419144E-02
     0.008     0.543   0.407312E-02
     0.008     0.551   0.395753E-02
     0.008     0.559   0.384453E-02
     0.008     0.567   0.373413E-02
     0.008     0.575   0.362617E-02
     0.008     0.583   0.352067E-02
     0.008     0.591   0.341749E-02
     0.008     0.598   0.331664E-02
     0.008     0.606   0.321798E-02
     0.008     0.614   0.312151E-02
     0.008     0.622   0.302712E-02
     0.008     0.630   0.293481E-02
     0.008     0.638   0.284444E-02
     0.008     0.646   0.275604E-02
     0.008     0.654   0.266948E-02
     0.008     0.661   0.258477E-02
     0.008     0.669   0.250178E-02
     0.008     0.677   0.242054E-02
     0.008     0.685   0.234092E-02
     0.008     0.693   0.226294E-02
     0.008     0.701   0.218649E-02
     0.008     0.709   0.211156E-02
     0.008     0.717   0.203807E-02
     0.008     0.724   0.196600E-02
     0.008     0.732   0.189528E-02
     0.008     0.740   0.182589E-02
     0.008     0.748   0.175774E-02
     0.008     0.756   0.169084E-02
     0.008     0.764   0.162510E-02
     0.008     0.772   0.156051E-02
     0.008     0.780   0.149699E-02
     0.008     0.787   0.143454E-02
     0.008     0.795   0.137307E-02
     0.008     0.803   0.131258E-02
     0.008     0.811   0.125300E-02
     0.008     0.819   0.119432E-02
     0.008     0.827   0.113647E-02
     0.008     0.835   0.107943E-02
     0.008     0.843   0.102314E-02
     0.008     0.850   0.967587E-03
     0.008     0.858   0.912705E-03
     0.008     0.866   0.858485E-03
     0.008     0.874   0.804860E-03
     0.008     0.882   0.751820E-03
     0.008     0.890   0.699302E-03
     0.008     0.898   0.647294E-03
     0.008     0.906   0.595735E-03
     0.008     0.913   0.544612E-03
     0.008     0.921   0.493867E-03
     0.008     0.929   0.443484E-03
     0.008     0.937   0.393410E-03
     0.008     0.945   0.343623E-03
     0.008     0.953   0.294076E-03
     0.008     0.961   0.244745E-03
     0.008     0.969   0.195584E-03
     0.008     0.976   0.146567E-03
     0.008     0.984   0.976523E-04
     0.008     0.992   0.488091E-04
     0.008     1.000    0.00000    
     0.016     0.000   0.494537E-01
     0.016     0.008   0.482324E-01
     0.016     0.016   0.470407E-01
     0.016     0.024   0.458777E-01
     0.016     0.031   0.447428E-01
     0.016     0.039   0.436354E-01
     0.016     0.047   0.425547E-01
     0.016     0.055   0.415001E-01
     0.016     0.063   0.404710E-01
     0.016     0.071   0.394667E-01
     0.016     0.079   0.384867E-01
     0.016     0.087   0.375303E-01
     0.016     0.094   0.365970E-01
     0.016     0.102   0.356862E-01
     0.016     0.110   0.347973E-01
     0.016     0.118   0.339300E-01
     0.016     0.126   0.330835E-01
     0.016     0.134   0.322574E-01
     0.016     0.142   0.314513E-01
     0.016     0.150   0.306645E-01
     0.016     0.157   0.298967E-01
     0.016     0.165   0.291475E-01
     0.016     0.173   0.284162E-01
     0.016     0.181   0.277026E-01
     0.016     0.189   0.270061E-01
     0.016     0.197   0.263264E-01
     0.016     0.205   0.256631E-01
     0.016     0.213   0.250157E-01
     0.016     0.220   0.243839E-01
     0.016     0.228   0.237672E-01
     0.016     0.236   0.231654E-01
     0.016     0.244   0.225781E-01
     0.016     0.252   0.220048E-01
     0.016     0.260   0.214453E-01
     0.016     0.268   0.208992E-01
     0.016     0.276   0.203663E-01
     0.016     0.283   0.198461E-01
     0.016     0.291   0.193384E-01
     0.016     0.299   0.188428E-01
     0.016     0.307   0.183592E-01
     0.016     0.315   0.178870E-01
     0.016     0.323   0.174263E-01
     0.016     0.331   0.169764E-01
     0.016     0.339   0.165374E-01
     0.016     0.346   0.161088E-01
     0.016     0.354   0.156905E-01
     0.016     0.362   0.152822E-01
     0.016     0.370   0.148836E-01
     0.016     0.378   0.144944E-01
     0.016     0.386   0.141146E-01
     0.016     0.394   0.137437E-01
     0.016     0.402   0.133817E-01
     0.016     0.409   0.130282E-01
     0.016     0.417   0.126831E-01
     0.016     0.425   0.123462E-01
     0.016     0.433   0.120173E-01
     0.016     0.441   0.116960E-01
     0.016     0.449   0.113824E-01
     0.016     0.457   0.110761E-01
     0.016     0.465   0.107771E-01
     0.016     0.472   0.104850E-01
     0.016     0.480   0.101998E-01
     0.016     0.488   0.992121E-02
     0.016     0.496   0.964915E-02
     0.016     0.504   0.938335E-02
     0.016     0.512   0.912378E-02
     0.016     0.520   0.887013E-02
     0.016     0.528   0.862240E-02
     0.016     0.535   0.838029E-02
     0.016     0.543   0.814378E-02
     0.016     0.551   0.791261E-02
     0.016     0.559   0.768675E-02
     0.016     0.567   0.746593E-02
     0.016     0.575   0.725016E-02
     0.016     0.583   0.703916E-02
     0.016     0.591   0.683293E-02
     0.016     0.598   0.663122E-02
     0.016     0.606   0.643402E-02
     0.016     0.614   0.624109E-02
     0.016     0.622   0.605242E-02
     0.016     0.630   0.586779E-02
     0.016     0.638   0.568718E-02
     0.016     0.646   0.551037E-02
     0.016     0.654   0.533736E-02
     0.016     0.661   0.516792E-02
     0.016     0.669   0.500207E-02
     0.016     0.677   0.483957E-02
     0.016     0.685   0.468045E-02
     0.016     0.693   0.452447E-02
     0.016     0.701   0.437166E-02
     0.016     0.709   0.422180E-02
     0.016     0.717   0.407491E-02
     0.016     0.724   0.393078E-02
     0.016     0.732   0.378942E-02
     0.016     0.740   0.365063E-02
     0.016     0.748   0.351443E-02
     0.016     0.756   0.338063E-02
     0.016     0.764   0.324922E-02
     0.016     0.772   0.312004E-02
     0.016     0.780   0.299308E-02
     0.016     0.787   0.286817E-02
     0.016     0.795   0.274532E-02
     0.016     0.803   0.262435E-02
     0.016     0.811   0.250526E-02
     0.016     0.819   0.238790E-02
     0.016     0.827   0.227226E-02
     0.016     0.835   0.215818E-02
     0.016     0.843   0.204567E-02
     0.016     0.850   0.193457E-02
     0.016     0.858   0.182487E-02
     0.016     0.866   0.171643E-02
     0.016     0.874   0.160924E-02
     0.016     0.882   0.150317E-02
     0.016     0.890   0.139819E-02
     0.016     0.898   0.129418E-02
     0.016     0.906   0.119112E-02
     0.016     0.913   0.108888E-02
     0.016     0.921   0.987441E-03
     0.016     0.929   0.886689E-03
     0.016     0.937   0.786585E-03
     0.016     0.945   0.687030E-03
     0.016     0.953   0.587978E-03
     0.016     0.961   0.489336E-03
     0.016     0.969   0.391052E-03
     0.016     0.976   0.293042E-03
     0.016     0.984   0.195247E-03
     0.016     0.992   0.975875E-04
     0.016     1.000    0.00000    
     0.024     0.000   0.741428E-01
     0.024     0.008   0.723117E-01
     0.024     0.016   0.705250E-01
     0.024     0.024   0.687814E-01
     0.024     0.031   0.670800E-01
     0.024     0.039   0.654197E-01
     0.024     0.047   0.637995E-01
     0.024     0.055   0.622184E-01
     0.024     0.063   0.606755E-01
     0.024     0.071   0.591698E-01
     0.024     0.079   0.577006E-01
     0.024     0.087   0.562667E-01
     0.024     0.094   0.548675E-01
     0.024     0.102   0.535020E-01
     0.024     0.110   0.521694E-01
     0.024     0.118   0.508690E-01
     0.024     0.126   0.495999E-01
     0.024     0.134   0.483615E-01
     0.024     0.142   0.471529E-01
     0.024     0.150   0.459733E-01
     0.024     0.157   0.448223E-01
     0.024     0.165   0.436989E-01
     0.024     0.173   0.426026E-01
     0.024     0.181   0.415327E-01
     0.024     0.189   0.404886E-01
     0.024     0.197   0.394695E-01
     0.024     0.205   0.384750E-01
     0.024     0.213   0.375044E-01
     0.024     0.220   0.365572E-01
     0.024     0.228   0.356326E-01
     0.024     0.236   0.347304E-01
     0.024     0.244   0.338498E-01
     0.024     0.252   0.329904E-01
     0.024     0.260   0.321515E-01
     0.024     0.268   0.313329E-01
     0.024     0.276   0.305338E-01
     0.024     0.283   0.297540E-01
     0.024     0.291   0.289928E-01
     0.024     0.299   0.282499E-01
     0.024     0.307   0.275247E-01
     0.024     0.315   0.268169E-01
     0.024     0.323   0.261260E-01
     0.024     0.331   0.254517E-01
     0.024     0.339   0.247935E-01
     0.024     0.346   0.241510E-01
     0.024     0.354   0.235238E-01
     0.024     0.362   0.229116E-01
     0.024     0.370   0.223139E-01
     0.024     0.378   0.217306E-01
     0.024     0.386   0.211610E-01
     0.024     0.394   0.206051E-01
     0.024     0.402   0.200622E-01
     0.024     0.409   0.195324E-01
     0.024     0.417   0.190150E-01
     0.024     0.425   0.185099E-01
     0.024     0.433   0.180166E-01
     0.024     0.441   0.175351E-01
     0.024     0.449   0.170649E-01
     0.024     0.457   0.166058E-01
     0.024     0.465   0.161574E-01
     0.024     0.472   0.157195E-01
     0.024     0.480   0.152919E-01
     0.024     0.488   0.148743E-01
     0.024     0.496   0.144663E-01
     0.024     0.504   0.140679E-01
     0.024     0.512   0.136786E-01
     0.024     0.520   0.132985E-01
     0.024     0.528   0.129270E-01
     0.024     0.535   0.125641E-01
     0.024     0.543   0.122094E-01
     0.024     0.551   0.118629E-01
     0.024     0.559   0.115242E-01
     0.024     0.567   0.111932E-01
     0.024     0.575   0.108696E-01
     0.024     0.583   0.105534E-01
     0.024     0.591   0.102441E-01
     0.024     0.598   0.994180E-02
     0.024     0.606   0.964606E-02
     0.024     0.614   0.935690E-02
     0.024     0.622   0.907396E-02
     0.024     0.630   0.879724E-02
     0.024     0.638   0.852637E-02
     0.024     0.646   0.826138E-02
     0.024     0.654   0.800191E-02
     0.024     0.661   0.774797E-02
     0.024     0.669   0.749923E-02
     0.024     0.677   0.725570E-02
     0.024     0.685   0.701705E-02
     0.024     0.693   0.678329E-02
     0.024     0.701   0.655411E-02
     0.024     0.709   0.632952E-02
     0.024     0.717   0.610921E-02
     0.024     0.724   0.589320E-02
     0.024     0.732   0.568119E-02
     0.024     0.740   0.547320E-02
     0.024     0.748   0.526893E-02
     0.024     0.756   0.506839E-02
     0.024     0.764   0.487131E-02
     0.024     0.772   0.467771E-02
     0.024     0.780   0.448730E-02
     0.024     0.787   0.430009E-02
     0.024     0.795   0.411584E-02
     0.024     0.803   0.393454E-02
     0.024     0.811   0.375594E-02
     0.024     0.819   0.358005E-02
     0.024     0.827   0.340662E-02
     0.024     0.835   0.323565E-02
     0.024     0.843   0.306691E-02
     0.024     0.850   0.290039E-02
     0.024     0.858   0.273588E-02
     0.024     0.866   0.257335E-02
     0.024     0.874   0.241261E-02
     0.024     0.882   0.225362E-02
     0.024     0.890   0.209620E-02
     0.024     0.898   0.194030E-02
     0.024     0.906   0.178575E-02
     0.024     0.913   0.163250E-02
     0.024     0.921   0.148039E-02
     0.024     0.929   0.132937E-02
     0.024     0.937   0.117927E-02
     0.024     0.945   0.103003E-02
     0.024     0.953   0.881509E-03
     0.024     0.961   0.733636E-03
     0.024     0.969   0.586274E-03
     0.024     0.976   0.439343E-03
     0.024     0.984   0.292718E-03
     0.024     0.992   0.146308E-03
     0.024     1.000    0.00000    
     0.031     0.000   0.987864E-01
     0.031     0.008   0.963468E-01
     0.031     0.016   0.939662E-01
     0.031     0.024   0.916431E-01
     0.031     0.031   0.893762E-01
     0.031     0.039   0.871640E-01
     0.031     0.047   0.850052E-01
     0.031     0.055   0.828986E-01
     0.031     0.063   0.808429E-01
     0.031     0.071   0.788368E-01
     0.031     0.079   0.768791E-01
     0.031     0.087   0.749687E-01
     0.031     0.094   0.731044E-01
     0.031     0.102   0.712850E-01
     0.031     0.110   0.695095E-01
     0.031     0.118   0.677769E-01
     0.031     0.126   0.660860E-01
     0.031     0.134   0.644359E-01
     0.031     0.142   0.628256E-01
     0.031     0.150   0.612540E-01
     0.031     0.157   0.597203E-01
     0.031     0.165   0.582236E-01
     0.031     0.173   0.567629E-01
     0.031     0.181   0.553374E-01
     0.031     0.189   0.539462E-01
     0.031     0.197   0.525885E-01
     0.031     0.205   0.512633E-01
     0.031     0.213   0.499702E-01
     0.031     0.220   0.487080E-01
     0.031     0.228   0.474763E-01
     0.031     0.236   0.462741E-01
     0.031     0.244   0.451009E-01
     0.031     0.252   0.439557E-01
     0.031     0.260   0.428381E-01
     0.031     0.268   0.417473E-01
     0.031     0.276   0.406827E-01
     0.031     0.283   0.396436E-01
     0.031     0.291   0.386295E-01
     0.031     0.299   0.376395E-01
     0.031     0.307   0.366734E-01
     0.031     0.315   0.357303E-01
     0.031     0.323   0.348099E-01
     0.031     0.331   0.339113E-01
     0.031     0.339   0.330344E-01
     0.031     0.346   0.321783E-01
     0.031     0.354   0.313427E-01
     0.031     0.362   0.305269E-01
     0.031     0.370   0.297307E-01
     0.031     0.378   0.289534E-01
     0.031     0.386   0.281946E-01
     0.031     0.394   0.274537E-01
     0.031     0.402   0.267306E-01
     0.031     0.409   0.260245E-01
     0.031     0.417   0.253352E-01
     0.031     0.425   0.246622E-01
     0.031     0.433   0.240051E-01
     0.031     0.441   0.233634E-01
     0.031     0.449   0.227370E-01
     0.031     0.457   0.221252E-01
     0.031     0.465   0.215278E-01
     0.031     0.472   0.209444E-01
     0.031     0.480   0.203747E-01
     0.031     0.488   0.198181E-01
     0.031     0.496   0.192747E-01
     0.031     0.504   0.187437E-01
     0.031     0.512   0.182252E-01
     0.031     0.520   0.177186E-01
     0.031     0.528   0.172237E-01
     0.031     0.535   0.167401E-01
     0.031     0.543   0.162676E-01
     0.031     0.551   0.158058E-01
     0.031     0.559   0.153547E-01
     0.031     0.567   0.149136E-01
     0.031     0.575   0.144826E-01
     0.031     0.583   0.140611E-01
     0.031     0.591   0.136491E-01
     0.031     0.598   0.132462E-01
     0.031     0.606   0.128523E-01
     0.031     0.614   0.124669E-01
     0.031     0.622   0.120900E-01
     0.031     0.630   0.117212E-01
     0.031     0.638   0.113604E-01
     0.031     0.646   0.110072E-01
     0.031     0.654   0.106617E-01
     0.031     0.661   0.103232E-01
     0.031     0.669   0.999189E-02
     0.031     0.677   0.966730E-02
     0.031     0.685   0.934944E-02
     0.031     0.693   0.903787E-02
     0.031     0.701   0.873262E-02
     0.031     0.709   0.843328E-02
     0.031     0.717   0.813985E-02
     0.031     0.724   0.785194E-02
     0.031     0.732   0.756957E-02
     0.031     0.740   0.729234E-02
     0.031     0.748   0.702027E-02
     0.031     0.756   0.675298E-02
     0.031     0.764   0.649049E-02
     0.031     0.772   0.623244E-02
     0.031     0.780   0.597883E-02
     0.031     0.787   0.572932E-02
     0.031     0.795   0.548391E-02
     0.031     0.803   0.524227E-02
     0.031     0.811   0.500439E-02
     0.031     0.819   0.476995E-02
     0.031     0.827   0.453895E-02
     0.031     0.835   0.431108E-02
     0.031     0.843   0.408633E-02
     0.031     0.850   0.386440E-02
     0.031     0.858   0.364527E-02
     0.031     0.866   0.342866E-02
     0.031     0.874   0.321454E-02
     0.031     0.882   0.300266E-02
     0.031     0.890   0.279295E-02
     0.031     0.898   0.258519E-02
     0.031     0.906   0.237932E-02
     0.031     0.913   0.217510E-02
     0.031     0.921   0.197247E-02
     0.031     0.929   0.177121E-02
     0.031     0.937   0.157125E-02
     0.031     0.945   0.137238E-02
     0.031     0.953   0.117452E-02
     0.031     0.961   0.977474E-03
     0.031     0.969   0.781148E-03
     0.031     0.976   0.585367E-03
     0.031     0.984   0.390015E-03
     0.031     0.992   0.194936E-03
     0.031     1.000    0.00000    
     0.039     0.000   0.123370    
     0.039     0.008   0.120323    
     0.039     0.016   0.117350    
     0.039     0.024   0.114449    
     0.039     0.031   0.111618    
     0.039     0.039   0.108855    
     0.039     0.047   0.106159    
     0.039     0.055   0.103528    
     0.039     0.063   0.100961    
     0.039     0.071   0.984555E-01
     0.039     0.079   0.960107E-01
     0.039     0.087   0.936248E-01
     0.039     0.094   0.912966E-01
     0.039     0.102   0.890244E-01
     0.039     0.110   0.868072E-01
     0.039     0.118   0.846433E-01
     0.039     0.126   0.825317E-01
     0.039     0.134   0.804709E-01
     0.039     0.142   0.784599E-01
     0.039     0.150   0.764972E-01
     0.039     0.157   0.745819E-01
     0.039     0.165   0.727127E-01
     0.039     0.173   0.708885E-01
     0.039     0.181   0.691082E-01
     0.039     0.189   0.673708E-01
     0.039     0.197   0.656752E-01
     0.039     0.205   0.640204E-01
     0.039     0.213   0.624053E-01
     0.039     0.220   0.608292E-01
     0.039     0.228   0.592908E-01
     0.039     0.236   0.577896E-01
     0.039     0.244   0.563243E-01
     0.039     0.252   0.548942E-01
     0.039     0.260   0.534985E-01
     0.039     0.268   0.521363E-01
     0.039     0.276   0.508067E-01
     0.039     0.283   0.495091E-01
     0.039     0.291   0.482424E-01
     0.039     0.299   0.470063E-01
     0.039     0.307   0.457996E-01
     0.039     0.315   0.446219E-01
     0.039     0.323   0.434723E-01
     0.039     0.331   0.423503E-01
     0.039     0.339   0.412550E-01
     0.039     0.346   0.401860E-01
     0.039     0.354   0.391423E-01
     0.039     0.362   0.381237E-01
     0.039     0.370   0.371292E-01
     0.039     0.378   0.361585E-01
     0.039     0.386   0.352108E-01
     0.039     0.394   0.342858E-01
     0.039     0.402   0.333825E-01
     0.039     0.409   0.325008E-01
     0.039     0.417   0.316399E-01
     0.039     0.425   0.307995E-01
     0.039     0.433   0.299787E-01
     0.039     0.441   0.291776E-01
     0.039     0.449   0.283951E-01
     0.039     0.457   0.276311E-01
     0.039     0.465   0.268850E-01
     0.039     0.472   0.261565E-01
     0.039     0.480   0.254449E-01
     0.039     0.488   0.247500E-01
     0.039     0.496   0.240712E-01
     0.039     0.504   0.234083E-01
     0.039     0.512   0.227605E-01
     0.039     0.520   0.221280E-01
     0.039     0.528   0.215098E-01
     0.039     0.535   0.209060E-01
     0.039     0.543   0.203158E-01
     0.039     0.551   0.197393E-01
     0.039     0.559   0.191756E-01
     0.039     0.567   0.186250E-01
     0.039     0.575   0.180865E-01
     0.039     0.583   0.175603E-01
     0.039     0.591   0.170457E-01
     0.039     0.598   0.165426E-01
     0.039     0.606   0.160505E-01
     0.039     0.614   0.155694E-01
     0.039     0.622   0.150986E-01
     0.039     0.630   0.146381E-01
     0.039     0.638   0.141874E-01
     0.039     0.646   0.137465E-01
     0.039     0.654   0.133148E-01
     0.039     0.661   0.128922E-01
     0.039     0.669   0.124783E-01
     0.039     0.677   0.120731E-01
     0.039     0.685   0.116760E-01
     0.039     0.693   0.112870E-01
     0.039     0.701   0.109057E-01
     0.039     0.709   0.105320E-01
     0.039     0.717   0.101654E-01
     0.039     0.724   0.980598E-02
     0.039     0.732   0.945321E-02
     0.039     0.740   0.910711E-02
     0.039     0.748   0.876721E-02
     0.039     0.756   0.843353E-02
     0.039     0.764   0.810561E-02
     0.039     0.772   0.778346E-02
     0.039     0.780   0.746663E-02
     0.039     0.787   0.715513E-02
     0.039     0.795   0.684855E-02
     0.039     0.803   0.654687E-02
     0.039     0.811   0.624969E-02
     0.039     0.819   0.595701E-02
     0.039     0.827   0.566843E-02
     0.039     0.835   0.538395E-02
     0.039     0.843   0.510318E-02
     0.039     0.850   0.482610E-02
     0.039     0.858   0.455236E-02
     0.039     0.866   0.428192E-02
     0.039     0.874   0.401446E-02
     0.039     0.882   0.374991E-02
     0.039     0.890   0.348796E-02
     0.039     0.898   0.322855E-02
     0.039     0.906   0.297139E-02
     0.039     0.913   0.271640E-02
     0.039     0.921   0.246330E-02
     0.039     0.929   0.221200E-02
     0.039     0.937   0.196224E-02
     0.039     0.945   0.171391E-02
     0.039     0.953   0.146678E-02
     0.039     0.961   0.122073E-02
     0.039     0.969   0.975530E-03
     0.039     0.976   0.731043E-03
     0.039     0.984   0.487067E-03
     0.039     0.992   0.243449E-03
     0.039     1.000    0.00000    
     0.047     0.000   0.147877    
     0.047     0.008   0.144225    
     0.047     0.016   0.140662    
     0.047     0.024   0.137184    
     0.047     0.031   0.133791    
     0.047     0.039   0.130479    
     0.047     0.047   0.127248    
     0.047     0.055   0.124094    
     0.047     0.063   0.121017    
     0.047     0.071   0.118014    
     0.047     0.079   0.115083    
     0.047     0.087   0.112224    
     0.047     0.094   0.109433    
     0.047     0.102   0.106709    
     0.047     0.110   0.104052    
     0.047     0.118   0.101458    
     0.047     0.126   0.989268E-01
     0.047     0.134   0.964567E-01
     0.047     0.142   0.940461E-01
     0.047     0.150   0.916936E-01
     0.047     0.157   0.893978E-01
     0.047     0.165   0.871573E-01
     0.047     0.173   0.849707E-01
     0.047     0.181   0.828368E-01
     0.047     0.189   0.807542E-01
     0.047     0.197   0.787218E-01
     0.047     0.205   0.767382E-01
     0.047     0.213   0.748024E-01
     0.047     0.220   0.729130E-01
     0.047     0.228   0.710692E-01
     0.047     0.236   0.692696E-01
     0.047     0.244   0.675133E-01
     0.047     0.252   0.657991E-01
     0.047     0.260   0.641261E-01
     0.047     0.268   0.624932E-01
     0.047     0.276   0.608996E-01
     0.047     0.283   0.593441E-01
     0.047     0.291   0.578260E-01
     0.047     0.299   0.563441E-01
     0.047     0.307   0.548979E-01
     0.047     0.315   0.534861E-01
     0.047     0.323   0.521083E-01
     0.047     0.331   0.507632E-01
     0.047     0.339   0.494505E-01
     0.047     0.346   0.481689E-01
     0.047     0.354   0.469181E-01
     0.047     0.362   0.456970E-01
     0.047     0.370   0.445051E-01
     0.047     0.378   0.433414E-01
     0.047     0.386   0.422056E-01
     0.047     0.394   0.410966E-01
     0.047     0.402   0.400141E-01
     0.047     0.409   0.389571E-01
     0.047     0.417   0.379253E-01
     0.047     0.425   0.369178E-01
     0.047     0.433   0.359342E-01
     0.047     0.441   0.349737E-01
     0.047     0.449   0.340359E-01
     0.047     0.457   0.331200E-01
     0.047     0.465   0.322259E-01
     0.047     0.472   0.313524E-01
     0.047     0.480   0.304997E-01
     0.047     0.488   0.296666E-01