Title="Temperature Data"
Variables="X","Y","T"
 
Zone I=   128, J=   128, F=POINT
     0.000     0.000    0.00000    
     0.000     0.008    0.00000    
     0.000     0.016    0.00000    
     0.000     0.024    0.00000    
     0.000     0.031    0.00000    
     0.000     0.039    0.00000    
     0.000     0.047    0.00000    
     0.000     0.055    0.00000    
     0.000     0.063    0.00000    
     0.000     0.071    0.00000    
     0.000     0.079    0.00000    
     0.000     0.087    0.00000    
     0.000     0.094    0.00000    
     0.000     0.102    0.00000    
     0.000     0.110    0.00000    
     0.000     0.118    0.00000    
     0.000     0.126    0.00000    
     0.000     0.134    0.00000    
     0.000     0.142    0.00000    
     0.000     0.150    0.00000    
     0.000     0.157    0.00000    
     0.000     0.165    0.00000    
     0.000     0.173    0.00000    
     0.000     0.181    0.00000    
     0.000     0.189    0.00000    
     0.000     0.197    0.00000    
     0.000     0.205    0.00000    
     0.000     0.213    0.00000    
     0.000     0.220    0.00000    
     0.000     0.228    0.00000    
     0.000     0.236    0.00000    
     0.000     0.244    0.00000    
     0.000     0.252    0.00000    
     0.000     0.260    0.00000    
     0.000     0.268    0.00000    
     0.000     0.276    0.00000    
     0.000     0.283    0.00000    
     0.000     0.291    0.00000    
     0.000     0.299    0.00000    
     0.000     0.307    0.00000    
     0.000     0.315    0.00000    
     0.000     0.323    0.00000    
     0.000     0.331    0.00000    
     0.000     0.339    0.00000    
     0.000     0.346    0.00000    
     0.000     0.354    0.00000    
     0.000     0.362    0.00000    
     0.000     0.370    0.00000    
     0.000     0.378    0.00000    
     0.000     0.386    0.00000    
     0.000     0.394    0.00000    
     0.000     0.402    0.00000    
     0.000     0.409    0.00000    
     0.000     0.417    0.00000    
     0.000     0.425    0.00000    
     0.000     0.433    0.00000    
     0.000     0.441    0.00000    
     0.000     0.449    0.00000    
     0.000     0.457    0.00000    
     0.000     0.465    0.00000    
     0.000     0.472    0.00000    
     0.000     0.480    0.00000    
     0.000     0.488    0.00000    
     0.000     0.496    0.00000    
     0.000     0.504    0.00000    
     0.000     0.512    0.00000    
     0.000     0.520    0.00000    
     0.000     0.528    0.00000    
     0.000     0.535    0.00000    
     0.000     0.543    0.00000    
     0.000     0.551    0.00000    
     0.000     0.559    0.00000    
     0.000     0.567    0.00000    
     0.000     0.575    0.00000    
     0.000     0.583    0.00000    
     0.000     0.591    0.00000    
     0.000     0.598    0.00000    
     0.000     0.606    0.00000    
     0.000     0.614    0.00000    
     0.000     0.622    0.00000    
     0.000     0.630    0.00000    
     0.000     0.638    0.00000    
     0.000     0.646    0.00000    
     0.000     0.654    0.00000    
     0.000     0.661    0.00000    
     0.000     0.669    0.00000    
     0.000     0.677    0.00000    
     0.000     0.685    0.00000    
     0.000     0.693    0.00000    
     0.000     0.701    0.00000    
     0.000     0.709    0.00000    
     0.000     0.717    0.00000    
     0.000     0.724    0.00000    
     0.000     0.732    0.00000    
     0.000     0.740    0.00000    
     0.000     0.748    0.00000    
     0.000     0.756    0.00000    
     0.000     0.764    0.00000    
     0.000     0.772    0.00000    
     0.000     0.780    0.00000    
     0.000     0.787    0.00000    
     0.000     0.795    0.00000    
     0.000     0.803    0.00000    
     0.000     0.811    0.00000    
     0.000     0.819    0.00000    
     0.000     0.827    0.00000    
     0.000     0.835    0.00000    
     0.000     0.843    0.00000    
     0.000     0.850    0.00000    
     0.000     0.858    0.00000    
     0.000     0.866    0.00000    
     0.000     0.874    0.00000    
     0.000     0.882    0.00000    
     0.000     0.890    0.00000    
     0.000     0.898    0.00000    
     0.000     0.906    0.00000    
     0.000     0.913    0.00000    
     0.000     0.921    0.00000    
     0.000     0.929    0.00000    
     0.000     0.937    0.00000    
     0.000     0.945    0.00000    
     0.000     0.953    0.00000    
     0.000     0.961    0.00000    
     0.000     0.969    0.00000    
     0.000     0.976    0.00000    
     0.000     0.984    0.00000    
     0.000     0.992    0.00000    
     0.000     1.000    0.00000    
     0.008     0.000   0.247344E-01
     0.008     0.008   0.241259E-01
     0.008     0.016   0.235322E-01
     0.008     0.024   0.229529E-01
     0.008     0.031   0.223876E-01
     0.008     0.039   0.218361E-01
     0.008     0.047   0.212979E-01
     0.008     0.055   0.207727E-01
     0.008     0.063   0.202603E-01
     0.008     0.071   0.197603E-01
     0.008     0.079   0.192725E-01
     0.008     0.087   0.187964E-01
     0.008     0.094   0.183318E-01
     0.008     0.102   0.178785E-01
     0.008     0.110   0.174362E-01
     0.008     0.118   0.170046E-01
     0.008     0.126   0.165834E-01
     0.008     0.134   0.161724E-01
     0.008     0.142   0.157713E-01
     0.008     0.150   0.153799E-01
     0.008     0.157   0.149980E-01
     0.008     0.165   0.146253E-01
     0.008     0.173   0.142615E-01
     0.008     0.181   0.139066E-01
     0.008     0.189   0.135602E-01
     0.008     0.197   0.132222E-01
     0.008     0.205   0.128923E-01
     0.008     0.213   0.125704E-01
     0.008     0.220   0.122562E-01
     0.008     0.228   0.119495E-01
     0.008     0.236   0.116503E-01
     0.008     0.244   0.113582E-01
     0.008     0.252   0.110731E-01
     0.008     0.260   0.107949E-01
     0.008     0.268   0.105234E-01
     0.008     0.276   0.102583E-01
     0.008     0.283   0.999965E-02
     0.008     0.291   0.974715E-02
     0.008     0.299   0.950070E-02
     0.008     0.307   0.926012E-02
     0.008     0.315   0.902530E-02
     0.008     0.323   0.879607E-02
     0.008     0.331   0.857231E-02
     0.008     0.339   0.835386E-02
     0.008     0.346   0.814062E-02
     0.008     0.354   0.793243E-02
     0.008     0.362   0.772919E-02
     0.008     0.370   0.753075E-02
     0.008     0.378   0.733702E-02
     0.008     0.386   0.714785E-02
     0.008     0.394   0.696315E-02
     0.008     0.402   0.678279E-02
     0.008     0.409   0.660668E-02
     0.008     0.417   0.643468E-02
     0.008     0.425   0.626673E-02
     0.008     0.433   0.610269E-02
     0.008     0.441   0.594249E-02
     0.008     0.449   0.578600E-02
     0.008     0.457   0.563316E-02
     0.008     0.465   0.548385E-02
     0.008     0.472   0.533799E-02
     0.008     0.480   0.519548E-02
     0.008     0.488   0.505626E-02
     0.008     0.496   0.492020E-02
     0.008     0.504   0.478727E-02
     0.008     0.512   0.465734E-02
     0.008     0.520   0.453037E-02
     0.008     0.528   0.440625E-02
     0.008     0.535   0.428493E-02
     0.008     0.543   0.416631E-02
     0.008     0.551   0.405035E-02
     0.008     0.559   0.393695E-02
     0.008     0.567   0.382605E-02
     0.008     0.575   0.371758E-02
     0.008     0.583   0.361148E-02
     0.008     0.591   0.350767E-02
     0.008     0.598   0.340611E-02
     0.008     0.606   0.330671E-02
     0.008     0.614   0.320943E-02
     0.008     0.622   0.311419E-02
     0.008     0.630   0.302095E-02
     0.008     0.638   0.292964E-02
     0.008     0.646   0.284021E-02
     0.008     0.654   0.275259E-02
     0.008     0.661   0.266675E-02
     0.008     0.669   0.258261E-02
     0.008     0.677   0.250015E-02
     0.008     0.685   0.241928E-02
     0.008     0.693   0.233998E-02
     0.008     0.701   0.226217E-02
     0.008     0.709   0.218584E-02
     0.008     0.717   0.211090E-02
     0.008     0.724   0.203734E-02
     0.008     0.732   0.196509E-02
     0.008     0.740   0.189412E-02
     0.008     0.748   0.182436E-02
     0.008     0.756   0.175580E-02
     0.008     0.764   0.168836E-02
     0.008     0.772   0.162203E-02
     0.008     0.780   0.155675E-02
     0.008     0.787   0.149248E-02
     0.008     0.795   0.142918E-02
     0.008     0.803   0.136682E-02
     0.008     0.811   0.130533E-02
     0.008     0.819   0.124471E-02
     0.008     0.827   0.118489E-02
     0.008     0.835   0.112585E-02
     0.008     0.843   0.106753E-02
     0.008     0.850   0.100993E-02
     0.008     0.858   0.952970E-03
     0.008     0.866   0.896643E-03
     0.008     0.874   0.840897E-03
     0.008     0.882   0.785707E-03
     0.008     0.890   0.731026E-03
     0.008     0.898   0.676828E-03
     0.008     0.906   0.623069E-03
     0.008     0.913   0.569723E-03
     0.008     0.921   0.516746E-03
     0.008     0.929   0.464112E-03
     0.008     0.937   0.411778E-03
     0.008     0.945   0.359718E-03
     0.008     0.953   0.307891E-03
     0.008     0.961   0.256269E-03
     0.008     0.969   0.204813E-03
     0.008     0.976   0.153493E-03
     0.008     0.984   0.102272E-03
     0.008     0.992   0.511195E-04
     0.008     1.000    0.00000    
     0.016     0.000   0.494537E-01
     0.016     0.008   0.482371E-01
     0.016     0.016   0.470500E-01
     0.016     0.024   0.458918E-01
     0.016     0.031   0.447616E-01
     0.016     0.039   0.436588E-01
     0.016     0.047   0.425827E-01
     0.016     0.055   0.415328E-01
     0.016     0.063   0.405083E-01
     0.016     0.071   0.395086E-01
     0.016     0.079   0.385331E-01
     0.016     0.087   0.375813E-01
     0.016     0.094   0.366524E-01
     0.016     0.102   0.357461E-01
     0.016     0.110   0.348617E-01
     0.016     0.118   0.339987E-01
     0.016     0.126   0.331566E-01
     0.016     0.134   0.323348E-01
     0.016     0.142   0.315329E-01
     0.016     0.150   0.307504E-01
     0.016     0.157   0.299868E-01
     0.016     0.165   0.292416E-01
     0.016     0.173   0.285144E-01
     0.016     0.181   0.278047E-01
     0.016     0.189   0.271121E-01
     0.016     0.197   0.264363E-01
     0.016     0.205   0.257767E-01
     0.016     0.213   0.251330E-01
     0.016     0.220   0.245048E-01
     0.016     0.228   0.238917E-01
     0.016     0.236   0.232934E-01
     0.016     0.244   0.227094E-01
     0.016     0.252   0.221395E-01
     0.016     0.260   0.215832E-01
     0.016     0.268   0.210403E-01
     0.016     0.276   0.205104E-01
     0.016     0.283   0.199932E-01
     0.016     0.291   0.194883E-01
     0.016     0.299   0.189956E-01
     0.016     0.307   0.185146E-01
     0.016     0.315   0.180451E-01
     0.016     0.323   0.175868E-01
     0.016     0.331   0.171394E-01
     0.016     0.339   0.167026E-01
     0.016     0.346   0.162762E-01
     0.016     0.354   0.158600E-01
     0.016     0.362   0.154536E-01
     0.016     0.370   0.150569E-01
     0.016     0.378   0.146695E-01
     0.016     0.386   0.142913E-01
     0.016     0.394   0.139220E-01
     0.016     0.402   0.135614E-01
     0.016     0.409   0.132093E-01
     0.016     0.417   0.128654E-01
     0.016     0.425   0.125296E-01
     0.016     0.433   0.122017E-01
     0.016     0.441   0.118813E-01
     0.016     0.449   0.115685E-01
     0.016     0.457   0.112629E-01
     0.016     0.465   0.109644E-01
     0.016     0.472   0.106727E-01
     0.016     0.480   0.103878E-01
     0.016     0.488   0.101094E-01
     0.016     0.496   0.983741E-02
     0.016     0.504   0.957159E-02
     0.016     0.512   0.931185E-02
     0.016     0.520   0.905795E-02
     0.016     0.528   0.880982E-02
     0.016     0.535   0.856723E-02
     0.016     0.543   0.833009E-02
     0.016     0.551   0.809821E-02
     0.016     0.559   0.787150E-02
     0.016     0.567   0.764975E-02
     0.016     0.575   0.743290E-02
     0.016     0.583   0.722074E-02
     0.016     0.591   0.701321E-02
     0.016     0.598   0.681012E-02
     0.016     0.606   0.661141E-02
     0.016     0.614   0.641688E-02
     0.016     0.622   0.622649E-02
     0.016     0.630   0.604004E-02
     0.016     0.638   0.585750E-02
     0.016     0.646   0.567867E-02
     0.016     0.654   0.550351E-02
     0.016     0.661   0.533186E-02
     0.016     0.669   0.516366E-02
     0.016     0.677   0.499875E-02
     0.016     0.685   0.483709E-02
     0.016     0.693   0.467851E-02
     0.016     0.701   0.452297E-02
     0.016     0.709   0.437033E-02
     0.016     0.717   0.422053E-02
     0.016     0.724   0.407343E-02
     0.016     0.732   0.392899E-02
     0.016     0.740   0.378707E-02
     0.016     0.748   0.364762E-02
     0.016     0.756   0.351051E-02
     0.016     0.764   0.337571E-02
     0.016     0.772   0.324307E-02
     0.016     0.780   0.311256E-02
     0.016     0.787   0.298405E-02
     0.016     0.795   0.285750E-02
     0.016     0.803   0.273279E-02
     0.016     0.811   0.260988E-02
     0.016     0.819   0.248865E-02
     0.016     0.827   0.236906E-02
     0.016     0.835   0.225100E-02
     0.016     0.843   0.213442E-02
     0.016     0.850   0.201923E-02
     0.016     0.858   0.190536E-02
     0.016     0.866   0.179273E-02
     0.016     0.874   0.168129E-02
     0.016     0.882   0.157093E-02
     0.016     0.890   0.146161E-02
     0.016     0.898   0.135324E-02
     0.016     0.906   0.124576E-02
     0.016     0.913   0.113909E-02
     0.016     0.921   0.103318E-02
     0.016     0.929   0.927936E-03
     0.016     0.937   0.823308E-03
     0.016     0.945   0.719214E-03
     0.016     0.953   0.615597E-03
     0.016     0.961   0.512379E-03
     0.016     0.969   0.409502E-03
     0.016     0.976   0.306890E-03
     0.016     0.984   0.204482E-03
     0.016     0.992   0.102207E-03
     0.016     1.000    0.00000    
     0.024     0.000   0.741428E-01
     0.024     0.008   0.723188E-01
     0.024     0.016   0.705391E-01
     0.024     0.024   0.688025E-01
     0.024     0.031   0.671081E-01
     0.024     0.039   0.654548E-01
     0.024     0.047   0.638416E-01
     0.024     0.055   0.622674E-01
     0.024     0.063   0.607314E-01
     0.024     0.071   0.592327E-01
     0.024     0.079   0.577702E-01
     0.024     0.087   0.563431E-01
     0.024     0.094   0.549506E-01
     0.024     0.102   0.535918E-01
     0.024     0.110   0.522659E-01
     0.024     0.118   0.509721E-01
     0.024     0.126   0.497096E-01
     0.024     0.134   0.484775E-01
     0.024     0.142   0.472753E-01
     0.024     0.150   0.461021E-01
     0.024     0.157   0.449572E-01
     0.024     0.165   0.438400E-01
     0.024     0.173   0.427497E-01
     0.024     0.181   0.416858E-01
     0.024     0.189   0.406475E-01
     0.024     0.197   0.396342E-01
     0.024     0.205   0.386453E-01
     0.024     0.213   0.376803E-01
     0.024     0.220   0.367385E-01
     0.024     0.228   0.358193E-01
     0.024     0.236   0.349223E-01
     0.024     0.244   0.340468E-01
     0.024     0.252   0.331923E-01
     0.024     0.260   0.323583E-01
     0.024     0.268   0.315444E-01
     0.024     0.276   0.307499E-01
     0.024     0.283   0.299745E-01
     0.024     0.291   0.292176E-01
     0.024     0.299   0.284788E-01
     0.024     0.307   0.277577E-01
     0.024     0.315   0.270538E-01
     0.024     0.323   0.263667E-01
     0.024     0.331   0.256960E-01
     0.024     0.339   0.250411E-01
     0.024     0.346   0.244019E-01
     0.024     0.354   0.237779E-01
     0.024     0.362   0.231687E-01
     0.024     0.370   0.225738E-01
     0.024     0.378   0.219931E-01
     0.024     0.386   0.214260E-01
     0.024     0.394   0.208724E-01
     0.024     0.402   0.203318E-01
     0.024     0.409   0.198039E-01
     0.024     0.417   0.192883E-01
     0.024     0.425   0.187849E-01
     0.024     0.433   0.182931E-01
     0.024     0.441   0.178129E-01
     0.024     0.449   0.173439E-01
     0.024     0.457   0.168857E-01
     0.024     0.465   0.164381E-01
     0.024     0.472   0.160009E-01
     0.024     0.480   0.155737E-01
     0.024     0.488   0.151564E-01
     0.024     0.496   0.147486E-01
     0.024     0.504   0.143501E-01
     0.024     0.512   0.139606E-01
     0.024     0.520   0.135800E-01
     0.024     0.528   0.132080E-01
     0.024     0.535   0.128443E-01
     0.024     0.543   0.124887E-01
     0.024     0.551   0.121411E-01
     0.024     0.559   0.118012E-01
     0.024     0.567   0.114688E-01
     0.024     0.575   0.111436E-01
     0.024     0.583   0.108256E-01
     0.024     0.591   0.105144E-01
     0.024     0.598   0.102100E-01
     0.024     0.606   0.991203E-02
     0.024     0.614   0.962044E-02
     0.024     0.622   0.933495E-02
     0.024     0.630   0.905547E-02
     0.024     0.638   0.878174E-02
     0.024     0.646   0.851368E-02
     0.024     0.654   0.825104E-02
     0.024     0.661   0.799374E-02
     0.024     0.669   0.774152E-02
     0.024     0.677   0.749433E-02
     0.024     0.685   0.725191E-02
     0.024     0.693   0.701420E-02
     0.024     0.701   0.678098E-02
     0.024     0.709   0.655217E-02
     0.024     0.717   0.632754E-02
     0.024     0.724   0.610705E-02
     0.024     0.732   0.589046E-02
     0.024     0.740   0.567772E-02
     0.024     0.748   0.546862E-02
     0.024     0.756   0.526310E-02
     0.024     0.764   0.506096E-02
     0.024     0.772   0.486214E-02
     0.024     0.780   0.466644E-02
     0.024     0.787   0.447380E-02
     0.024     0.795   0.428405E-02
     0.024     0.803   0.409710E-02
     0.024     0.811   0.391281E-02
     0.024     0.819   0.373108E-02
     0.024     0.827   0.355176E-02
     0.024     0.835   0.337479E-02
     0.024     0.843   0.319999E-02
     0.024     0.850   0.302731E-02
     0.024     0.858   0.285658E-02
     0.024     0.866   0.268774E-02
     0.024     0.874   0.252063E-02
     0.024     0.882   0.235520E-02
     0.024     0.890   0.219129E-02
     0.024     0.898   0.202883E-02
     0.024     0.906   0.186768E-02
     0.024     0.913   0.170777E-02
     0.024     0.921   0.154897E-02
     0.024     0.929   0.139120E-02
     0.024     0.937   0.123433E-02
     0.024     0.945   0.107827E-02
     0.024     0.953   0.922921E-03
     0.024     0.961   0.768180E-03
     0.024     0.969   0.613937E-03
     0.024     0.976   0.460102E-03
     0.024     0.984   0.306566E-03
     0.024     0.992   0.153233E-03
     0.024     1.000    0.00000    
     0.031     0.000   0.987864E-01
     0.031     0.008   0.963562E-01
     0.031     0.016   0.939849E-01
     0.031     0.024   0.916712E-01
     0.031     0.031   0.894136E-01
     0.031     0.039   0.872107E-01
     0.031     0.047   0.850613E-01
     0.031     0.055   0.829639E-01
     0.031     0.063   0.809174E-01
     0.031     0.071   0.789205E-01
     0.031     0.079   0.769719E-01
     0.031     0.087   0.750706E-01
     0.031     0.094   0.732152E-01
     0.031     0.102   0.714048E-01
     0.031     0.110   0.696381E-01
     0.031     0.118   0.679143E-01
     0.031     0.126   0.662321E-01
     0.031     0.134   0.645906E-01
     0.031     0.142   0.629887E-01
     0.031     0.150   0.614256E-01
     0.031     0.157   0.599001E-01
     0.031     0.165   0.584116E-01
     0.031     0.173   0.569589E-01
     0.031     0.181   0.555414E-01
     0.031     0.189   0.541579E-01
     0.031     0.197   0.528079E-01
     0.031     0.205   0.514903E-01
     0.031     0.213   0.502045E-01
     0.031     0.220   0.489497E-01
     0.031     0.228   0.477250E-01
     0.031     0.236   0.465298E-01
     0.031     0.244   0.453633E-01
     0.031     0.252   0.442248E-01
     0.031     0.260   0.431136E-01
     0.031     0.268   0.420291E-01
     0.031     0.276   0.409706E-01
     0.031     0.283   0.399374E-01
     0.031     0.291   0.389290E-01
     0.031     0.299   0.379447E-01
     0.031     0.307   0.369839E-01
     0.031     0.315   0.360460E-01
     0.031     0.323   0.351305E-01
     0.031     0.331   0.342368E-01
     0.031     0.339   0.333644E-01
     0.031     0.346   0.325127E-01
     0.031     0.354   0.316812E-01
     0.031     0.362   0.308695E-01
     0.031     0.370   0.300770E-01
     0.031     0.378   0.293032E-01
     0.031     0.386   0.285477E-01
     0.031     0.394   0.278100E-01
     0.031     0.402   0.270897E-01
     0.031     0.409   0.263863E-01
     0.031     0.417   0.256994E-01
     0.031     0.425   0.250286E-01
     0.031     0.433   0.243735E-01
     0.031     0.441   0.237336E-01
     0.031     0.449   0.231087E-01
     0.031     0.457   0.224982E-01
     0.031     0.465   0.219019E-01
     0.031     0.472   0.213193E-01
     0.031     0.480   0.207502E-01
     0.031     0.488   0.201941E-01
     0.031     0.496   0.196507E-01
     0.031     0.504   0.191198E-01
     0.031     0.512   0.186009E-01
     0.031     0.520   0.180937E-01
     0.031     0.528   0.175981E-01
     0.031     0.535   0.171135E-01
     0.031     0.543   0.166398E-01
     0.031     0.551   0.161766E-01
     0.031     0.559   0.157237E-01
     0.031     0.567   0.152808E-01
     0.031     0.575   0.148476E-01
     0.031     0.583   0.144238E-01
     0.031     0.591   0.140093E-01
     0.031     0.598   0.136036E-01
     0.031     0.606   0.132066E-01
     0.031     0.614   0.128181E-01
     0.031     0.622   0.124377E-01
     0.031     0.630   0.120653E-01
     0.031     0.638   0.117007E-01
     0.031     0.646   0.113434E-01
     0.031     0.654   0.109936E-01
     0.031     0.661   0.106507E-01
     0.031     0.669   0.103147E-01
     0.031     0.677   0.998527E-02
     0.031     0.685   0.966234E-02
     0.031     0.693   0.934557E-02
     0.031     0.701   0.903488E-02
     0.031     0.709   0.872996E-02
     0.031     0.717   0.843073E-02
     0.031     0.724   0.813689E-02
     0.031     0.732   0.784836E-02
     0.031     0.740   0.756487E-02
     0.031     0.748   0.728631E-02
     0.031     0.756   0.701244E-02
     0.031     0.764   0.674315E-02
     0.031     0.772   0.647820E-02
     0.031     0.780   0.621749E-02
     0.031     0.787   0.596079E-02
     0.031     0.795   0.570800E-02
     0.031     0.803   0.545889E-02
     0.031     0.811   0.521337E-02
     0.031     0.819   0.497121E-02
     0.031     0.827   0.473232E-02
     0.031     0.835   0.449649E-02
     0.031     0.843   0.426362E-02
     0.031     0.850   0.403351E-02
     0.031     0.858   0.380606E-02
     0.031     0.866   0.358108E-02
     0.031     0.874   0.335846E-02
     0.031     0.882   0.313801E-02
     0.031     0.890   0.291964E-02
     0.031     0.898   0.270316E-02
     0.031     0.906   0.248847E-02
     0.031     0.913   0.227540E-02
     0.031     0.921   0.206383E-02
     0.031     0.929   0.185360E-02
     0.031     0.937   0.164460E-02
     0.031     0.945   0.143667E-02
     0.031     0.953   0.122969E-02
     0.031     0.961   0.102350E-02
     0.031     0.969   0.818002E-03
     0.031     0.976   0.613030E-03
     0.031     0.984   0.408464E-03
     0.031     0.992   0.204164E-03
     0.031     1.000    0.00000    
     0.039     0.000   0.123370    
     0.039     0.008   0.120335    
     0.039     0.016   0.117373    
     0.039     0.024   0.114484    
     0.039     0.031   0.111664    
     0.039     0.039   0.108913    
     0.039     0.047   0.106229    
     0.039     0.055   0.103610    
     0.039     0.063   0.101054    
     0.039     0.071   0.985600E-01
     0.039     0.079   0.961266E-01
     0.039     0.087   0.937520E-01
     0.039     0.094   0.914350E-01
     0.039     0.102   0.891740E-01
     0.039     0.110   0.869678E-01
     0.039     0.118   0.848149E-01
     0.039     0.126   0.827141E-01
     0.039     0.134   0.806640E-01
     0.039     0.142   0.786636E-01
     0.039     0.150   0.767114E-01
     0.039     0.157   0.748064E-01
     0.039     0.165   0.729474E-01
     0.039     0.173   0.711333E-01
     0.039     0.181   0.693629E-01
     0.039     0.189   0.676353E-01
     0.039     0.197   0.659492E-01
     0.039     0.205   0.643038E-01
     0.039     0.213   0.626980E-01
     0.039     0.220   0.611309E-01
     0.039     0.228   0.596015E-01
     0.039     0.236   0.581088E-01
     0.039     0.244   0.566520E-01
     0.039     0.252   0.552302E-01
     0.039     0.260   0.538425E-01
     0.039     0.268   0.524882E-01
     0.039     0.276   0.511662E-01
     0.039     0.283   0.498760E-01
     0.039     0.291   0.486165E-01
     0.039     0.299   0.473873E-01
     0.039     0.307   0.461874E-01
     0.039     0.315   0.450161E-01
     0.039     0.323   0.438728E-01
     0.039     0.331   0.427567E-01
     0.039     0.339   0.416671E-01
     0.039     0.346   0.406035E-01
     0.039     0.354   0.395651E-01
     0.039     0.362   0.385514E-01
     0.039     0.370   0.375617E-01
     0.039     0.378   0.365954E-01
     0.039     0.386   0.356518E-01
     0.039     0.394   0.347306E-01
     0.039     0.402   0.338310E-01
     0.039     0.409   0.329526E-01
     0.039     0.417   0.320947E-01
     0.039     0.425   0.312570E-01
     0.039     0.433   0.304388E-01
     0.039     0.441   0.296398E-01
     0.039     0.449   0.288593E-01
     0.039     0.457   0.280969E-01
     0.039     0.465   0.273522E-01
     0.039     0.472   0.266247E-01
     0.039     0.480   0.259139E-01
     0.039     0.488   0.252194E-01
     0.039     0.496   0.245408E-01
     0.039     0.504   0.238778E-01
     0.039     0.512   0.232297E-01
     0.039     0.520   0.225964E-01
     0.039     0.528   0.219774E-01
     0.039     0.535   0.213723E-01
     0.039     0.543   0.207806E-01
     0.039     0.551   0.202022E-01
     0.039     0.559   0.196366E-01
     0.039     0.567   0.190835E-01
     0.039     0.575   0.185424E-01
     0.039     0.583   0.180132E-01
     0.039     0.591   0.174955E-01
     0.039     0.598   0.169889E-01
     0.039     0.606   0.164931E-01
     0.039     0.614   0.160079E-01
     0.039     0.622   0.155329E-01
     0.039     0.630   0.150678E-01
     0.039     0.638   0.146124E-01
     0.039     0.646   0.141663E-01
     0.039     0.654   0.137293E-01
     0.039     0.661   0.133012E-01
     0.039     0.669   0.128815E-01
     0.039     0.677   0.124702E-01
     0.039     0.685   0.120668E-01
     0.039     0.693   0.116713E-01
     0.039     0.701   0.112832E-01
     0.039     0.709   0.109025E-01
     0.039     0.717   0.105287E-01
     0.039     0.724   0.101618E-01
     0.039     0.732   0.980142E-02
     0.039     0.740   0.944743E-02
     0.039     0.748   0.909950E-02
     0.039     0.756   0.875752E-02
     0.039     0.764   0.842117E-02
     0.039     0.772   0.809034E-02
     0.039     0.780   0.776471E-02
     0.039     0.787   0.744417E-02
     0.039     0.795   0.712843E-02
     0.039     0.803   0.681737E-02
     0.039     0.811   0.651070E-02
     0.039     0.819   0.620832E-02
     0.039     0.827   0.590995E-02
     0.039     0.835   0.561547E-02
     0.039     0.843   0.532462E-02
     0.039     0.850   0.503728E-02
     0.039     0.858   0.475319E-02
     0.039     0.866   0.447225E-02
     0.039     0.874   0.419420E-02
     0.039     0.882   0.391893E-02
     0.039     0.890   0.364619E-02
     0.039     0.898   0.337586E-02
     0.039     0.906   0.310773E-02
     0.039     0.913   0.284165E-02
     0.039     0.921   0.257741E-02
     0.039     0.929   0.231488E-02
     0.039     0.937   0.205386E-02
     0.039     0.945   0.179419E-02
     0.039     0.953   0.153569E-02
     0.039     0.961   0.127821E-02
     0.039     0.969   0.102156E-02
     0.039     0.976   0.765586E-03
     0.039     0.984   0.510110E-03
     0.039     0.992   0.254972E-03
     0.039     1.000    0.00000    
     0.047     0.000   0.147877    
     0.047     0.008   0.144239    
     0.047     0.016   0.140690    
     0.047     0.024   0.137226    
     0.047     0.031   0.133847    
     0.047     0.039   0.130549    
     0.047     0.047   0.127332    
     0.047     0.055   0.124192    
     0.047     0.063   0.121129    
     0.047     0.071   0.118139    
     0.047     0.079   0.115222    
     0.047     0.087   0.112376    
     0.047     0.094   0.109599    
     0.047     0.102   0.106889    
     0.047     0.110   0.104244    
     0.047     0.118   0.101664    
     0.047     0.126   0.991455E-01
     0.047     0.134   0.966882E-01
     0.047     0.142   0.942903E-01
     0.047     0.150   0.919504E-01
     0.047     0.157   0.896669E-01
     0.047     0.165   0.874387E-01
     0.047     0.173   0.852641E-01
     0.047     0.181   0.831421E-01
     0.047     0.189   0.810712E-01
     0.047     0.197   0.790502E-01
     0.047     0.205   0.770779E-01
     0.047     0.213   0.751532E-01
     0.047     0.220   0.732747E-01
     0.047     0.228   0.714415E-01
     0.047     0.236   0.696523E-01
     0.047     0.244   0.679061E-01
     0.047     0.252   0.662018E-01
     0.047     0.260   0.645385E-01
     0.047     0.268   0.629151E-01
     0.047     0.276   0.613306E-01
     0.047     0.283   0.597839E-01
     0.047     0.291   0.582744E-01
     0.047     0.299   0.568009E-01
     0.047     0.307   0.553627E-01
     0.047     0.315   0.539587E-01
     0.047     0.323   0.525883E-01
     0.047     0.331   0.512504E-01
     0.047     0.339   0.499445E-01
     0.047     0.346   0.486695E-01
     0.047     0.354   0.474249E-01
     0.047     0.362   0.462097E-01
     0.047     0.370   0.450234E-01
     0.047     0.378   0.438651E-01
     0.047     0.386   0.427342E-01
     0.047     0.394   0.416299E-01
     0.047     0.402   0.405516E-01
     0.047     0.409   0.394987E-01
     0.047     0.417   0.384705E-01
     0.047     0.425   0.374663E-01
     0.047     0.433   0.364856E-01
     0.047     0.441   0.355278E-01
     0.047     0.449   0.345923E-01
     0.047     0.457   0.336784E-01
     0.047     0.465   0.327858E-01
     0.047     0.472   0.319137E-01
     0.047     0.480   0.310618E-01
     0.047     0.488   0.302293E-01