Title="Temperature Data"
Variables="X","Y","T"
 
Zone I=   128, J=   128, F=POINT
     0.000     0.000    0.00000    
     0.000     0.008    0.00000    
     0.000     0.016    0.00000    
     0.000     0.024    0.00000    
     0.000     0.031    0.00000    
     0.000     0.039    0.00000    
     0.000     0.047    0.00000    
     0.000     0.055    0.00000    
     0.000     0.063    0.00000    
     0.000     0.071    0.00000    
     0.000     0.079    0.00000    
     0.000     0.087    0.00000    
     0.000     0.094    0.00000    
     0.000     0.102    0.00000    
     0.000     0.110    0.00000    
     0.000     0.118    0.00000    
     0.000     0.126    0.00000    
     0.000     0.134    0.00000    
     0.000     0.142    0.00000    
     0.000     0.150    0.00000    
     0.000     0.157    0.00000    
     0.000     0.165    0.00000    
     0.000     0.173    0.00000    
     0.000     0.181    0.00000    
     0.000     0.189    0.00000    
     0.000     0.197    0.00000    
     0.000     0.205    0.00000    
     0.000     0.213    0.00000    
     0.000     0.220    0.00000    
     0.000     0.228    0.00000    
     0.000     0.236    0.00000    
     0.000     0.244    0.00000    
     0.000     0.252    0.00000    
     0.000     0.260    0.00000    
     0.000     0.268    0.00000    
     0.000     0.276    0.00000    
     0.000     0.283    0.00000    
     0.000     0.291    0.00000    
     0.000     0.299    0.00000    
     0.000     0.307    0.00000    
     0.000     0.315    0.00000    
     0.000     0.323    0.00000    
     0.000     0.331    0.00000    
     0.000     0.339    0.00000    
     0.000     0.346    0.00000    
     0.000     0.354    0.00000    
     0.000     0.362    0.00000    
     0.000     0.370    0.00000    
     0.000     0.378    0.00000    
     0.000     0.386    0.00000    
     0.000     0.394    0.00000    
     0.000     0.402    0.00000    
     0.000     0.409    0.00000    
     0.000     0.417    0.00000    
     0.000     0.425    0.00000    
     0.000     0.433    0.00000    
     0.000     0.441    0.00000    
     0.000     0.449    0.00000    
     0.000     0.457    0.00000    
     0.000     0.465    0.00000    
     0.000     0.472    0.00000    
     0.000     0.480    0.00000    
     0.000     0.488    0.00000    
     0.000     0.496    0.00000    
     0.000     0.504    0.00000    
     0.000     0.512   0.247344E-01
     0.000     0.520    0.00000    
     0.000     0.528    0.00000    
     0.000     0.535    0.00000    
     0.000     0.543    0.00000    
     0.000     0.551    0.00000    
     0.000     0.559    0.00000    
     0.000     0.567    0.00000    
     0.000     0.575    0.00000    
     0.000     0.583    0.00000    
     0.000     0.591    0.00000    
     0.000     0.598    0.00000    
     0.000     0.606    0.00000    
     0.000     0.614    0.00000    
     0.000     0.622    0.00000    
     0.000     0.630    0.00000    
     0.000     0.638    0.00000    
     0.000     0.646    0.00000    
     0.000     0.654    0.00000    
     0.000     0.661    0.00000    
     0.000     0.669    0.00000    
     0.000     0.677    0.00000    
     0.000     0.685    0.00000    
     0.000     0.693    0.00000    
     0.000     0.701    0.00000    
     0.000     0.709    0.00000    
     0.000     0.717    0.00000    
     0.000     0.724    0.00000    
     0.000     0.732    0.00000    
     0.000     0.740    0.00000    
     0.000     0.748    0.00000    
     0.000     0.756    0.00000    
     0.000     0.764    0.00000    
     0.000     0.772    0.00000    
     0.000     0.780    0.00000    
     0.000     0.787    0.00000    
     0.000     0.795    0.00000    
     0.000     0.803    0.00000    
     0.000     0.811    0.00000    
     0.000     0.819    0.00000    
     0.000     0.827    0.00000    
     0.000     0.835    0.00000    
     0.000     0.843    0.00000    
     0.000     0.850    0.00000    
     0.000     0.858    0.00000    
     0.000     0.866    0.00000    
     0.000     0.874    0.00000    
     0.000     0.882    0.00000    
     0.000     0.890    0.00000    
     0.000     0.898    0.00000    
     0.000     0.906    0.00000    
     0.000     0.913    0.00000    
     0.000     0.921    0.00000    
     0.000     0.929    0.00000    
     0.000     0.937    0.00000    
     0.000     0.945    0.00000    
     0.000     0.953    0.00000    
     0.000     0.961    0.00000    
     0.000     0.969    0.00000    
     0.000     0.976    0.00000    
     0.000     0.984    0.00000    
     0.000     0.992    0.00000    
     0.000     1.000    0.00000    
     0.008     0.000   0.247344E-01
     0.008     0.008   0.241268E-01
     0.008     0.016   0.235339E-01
     0.008     0.024   0.229554E-01
     0.008     0.031   0.223909E-01
     0.008     0.039   0.218402E-01
     0.008     0.047   0.213029E-01
     0.008     0.055   0.207785E-01
     0.008     0.063   0.202670E-01
     0.008     0.071   0.197678E-01
     0.008     0.079   0.192807E-01
     0.008     0.087   0.188055E-01
     0.008     0.094   0.183417E-01
     0.008     0.102   0.178893E-01
     0.008     0.110   0.174478E-01
     0.008     0.118   0.170169E-01
     0.008     0.126   0.165966E-01
     0.008     0.134   0.161864E-01
     0.008     0.142   0.157861E-01
     0.008     0.150   0.153956E-01
     0.008     0.157   0.150144E-01
     0.008     0.165   0.146426E-01
     0.008     0.173   0.142797E-01
     0.008     0.181   0.139256E-01
     0.008     0.189   0.135800E-01
     0.008     0.197   0.132428E-01
     0.008     0.205   0.129138E-01
     0.008     0.213   0.125927E-01
     0.008     0.220   0.122794E-01
     0.008     0.228   0.119736E-01
     0.008     0.236   0.116753E-01
     0.008     0.244   0.113841E-01
     0.008     0.252   0.111000E-01
     0.008     0.260   0.108227E-01
     0.008     0.268   0.105522E-01
     0.008     0.276   0.102882E-01
     0.008     0.283   0.100306E-01
     0.008     0.291   0.977920E-02
     0.008     0.299   0.953394E-02
     0.008     0.307   0.929463E-02
     0.008     0.315   0.906116E-02
     0.008     0.323   0.883339E-02
     0.008     0.331   0.861121E-02
     0.008     0.339   0.839450E-02
     0.008     0.346   0.818318E-02
     0.008     0.354   0.797715E-02
     0.008     0.362   0.777633E-02
     0.008     0.370   0.758067E-02
     0.008     0.378   0.739014E-02
     0.008     0.386   0.720473E-02
     0.008     0.394   0.702449E-02
     0.008     0.402   0.684950E-02
     0.008     0.409   0.667998E-02
     0.008     0.417   0.651621E-02
     0.008     0.425   0.635873E-02
     0.008     0.433   0.620838E-02
     0.008     0.441   0.606655E-02
     0.008     0.449   0.593559E-02
     0.008     0.457   0.581970E-02
     0.008     0.465   0.572672E-02
     0.008     0.472   0.567258E-02
     0.008     0.480   0.569256E-02
     0.008     0.488   0.587384E-02
     0.008     0.496   0.645776E-02
     0.008     0.504   0.819441E-02
     0.008     0.512   0.136733E-01
     0.008     0.520   0.793745E-02
     0.008     0.528   0.594369E-02
     0.008     0.535   0.510233E-02
     0.008     0.543   0.466316E-02
     0.008     0.551   0.438462E-02
     0.008     0.559   0.417945E-02
     0.008     0.567   0.401215E-02
     0.008     0.575   0.386667E-02
     0.008     0.583   0.373497E-02
     0.008     0.591   0.361273E-02
     0.008     0.598   0.349742E-02
     0.008     0.606   0.338749E-02
     0.008     0.614   0.328192E-02
     0.008     0.622   0.318004E-02
     0.008     0.630   0.308136E-02
     0.008     0.638   0.298554E-02
     0.008     0.646   0.289229E-02
     0.008     0.654   0.280142E-02
     0.008     0.661   0.271274E-02
     0.008     0.669   0.262613E-02
     0.008     0.677   0.254145E-02
     0.008     0.685   0.245861E-02
     0.008     0.693   0.237751E-02
     0.008     0.701   0.229808E-02
     0.008     0.709   0.222023E-02
     0.008     0.717   0.214390E-02
     0.008     0.724   0.206902E-02
     0.008     0.732   0.199554E-02
     0.008     0.740   0.192338E-02
     0.008     0.748   0.185252E-02
     0.008     0.756   0.178287E-02
     0.008     0.764   0.171441E-02
     0.008     0.772   0.164706E-02
     0.008     0.780   0.158081E-02
     0.008     0.787   0.151558E-02
     0.008     0.795   0.145135E-02
     0.008     0.803   0.138807E-02
     0.008     0.811   0.132569E-02
     0.008     0.819   0.126417E-02
     0.008     0.827   0.120347E-02
     0.008     0.835   0.114355E-02
     0.008     0.843   0.108438E-02
     0.008     0.850   0.102591E-02
     0.008     0.858   0.968102E-03
     0.008     0.866   0.910920E-03
     0.008     0.874   0.854331E-03
     0.008     0.882   0.798291E-03
     0.008     0.890   0.742771E-03
     0.008     0.898   0.687728E-03
     0.008     0.906   0.633132E-03
     0.008     0.913   0.578943E-03
     0.008     0.921   0.525130E-03
     0.008     0.929   0.471655E-03
     0.008     0.937   0.418486E-03
     0.008     0.945   0.365585E-03
     0.008     0.953   0.312922E-03
     0.008     0.961   0.260460E-03
     0.008     0.969   0.208167E-03
     0.008     0.976   0.156007E-03
     0.008     0.984   0.103949E-03
     0.008     0.992   0.519577E-04
     0.008     1.000    0.00000    
     0.016     0.000   0.494537E-01
     0.016     0.008   0.482388E-01
     0.016     0.016   0.470534E-01
     0.016     0.024   0.458967E-01
     0.016     0.031   0.447682E-01
     0.016     0.039   0.436671E-01
     0.016     0.047   0.425927E-01
     0.016     0.055   0.415444E-01
     0.016     0.063   0.405215E-01
     0.016     0.071   0.395235E-01
     0.016     0.079   0.385496E-01
     0.016     0.087   0.375994E-01
     0.016     0.094   0.366723E-01
     0.016     0.102   0.357676E-01
     0.016     0.110   0.348848E-01
     0.016     0.118   0.340235E-01
     0.016     0.126   0.331830E-01
     0.016     0.134   0.323628E-01
     0.016     0.142   0.315626E-01
     0.016     0.150   0.307817E-01
     0.016     0.157   0.300197E-01
     0.016     0.165   0.292762E-01
     0.016     0.173   0.285506E-01
     0.016     0.181   0.278426E-01
     0.016     0.189   0.271517E-01
     0.016     0.197   0.264775E-01
     0.016     0.205   0.258196E-01
     0.016     0.213   0.251777E-01
     0.016     0.220   0.245512E-01
     0.016     0.228   0.239399E-01
     0.016     0.236   0.233433E-01
     0.016     0.244   0.227612E-01
     0.016     0.252   0.221931E-01
     0.016     0.260   0.216388E-01
     0.016     0.268   0.210978E-01
     0.016     0.276   0.205700E-01
     0.016     0.283   0.200549E-01
     0.016     0.291   0.195524E-01
     0.016     0.299   0.190619E-01
     0.016     0.307   0.185835E-01
     0.016     0.315   0.181167E-01
     0.016     0.323   0.176612E-01
     0.016     0.331   0.172170E-01
     0.016     0.339   0.167837E-01
     0.016     0.346   0.163611E-01
     0.016     0.354   0.159491E-01
     0.016     0.362   0.155475E-01
     0.016     0.370   0.151563E-01
     0.016     0.378   0.147752E-01
     0.016     0.386   0.144044E-01
     0.016     0.394   0.140438E-01
     0.016     0.402   0.136936E-01
     0.016     0.409   0.133542E-01
     0.016     0.417   0.130262E-01
     0.016     0.425   0.127104E-01
     0.016     0.433   0.124083E-01
     0.016     0.441   0.121223E-01
     0.016     0.449   0.118562E-01
     0.016     0.457   0.116165E-01
     0.016     0.465   0.114147E-01
     0.016     0.472   0.112711E-01
     0.016     0.480   0.112239E-01
     0.016     0.488   0.113451E-01
     0.016     0.496   0.117629E-01
     0.016     0.504   0.126467E-01
     0.016     0.512   0.138268E-01
     0.016     0.520   0.121329E-01
     0.016     0.528   0.107350E-01
     0.016     0.535   0.980254E-02
     0.016     0.543   0.916571E-02
     0.016     0.551   0.869596E-02
     0.016     0.559   0.832106E-02
     0.016     0.567   0.800254E-02
     0.016     0.575   0.771958E-02
     0.016     0.583   0.746055E-02
     0.016     0.591   0.721858E-02
     0.016     0.598   0.698952E-02
     0.016     0.606   0.677065E-02
     0.016     0.614   0.656021E-02
     0.016     0.622   0.635692E-02
     0.016     0.630   0.615993E-02
     0.016     0.638   0.596854E-02
     0.016     0.646   0.578227E-02
     0.016     0.654   0.560068E-02
     0.016     0.661   0.542347E-02
     0.016     0.669   0.525035E-02
     0.016     0.677   0.508111E-02
     0.016     0.685   0.491551E-02
     0.016     0.693   0.475341E-02
     0.016     0.701   0.459461E-02
     0.016     0.709   0.443899E-02
     0.016     0.717   0.428639E-02
     0.016     0.724   0.413670E-02
     0.016     0.732   0.398978E-02
     0.016     0.740   0.384554E-02
     0.016     0.748   0.370384E-02
     0.016     0.756   0.356461E-02
     0.016     0.764   0.342772E-02
     0.016     0.772   0.329309E-02
     0.016     0.780   0.316061E-02
     0.016     0.787   0.303022E-02
     0.016     0.795   0.290179E-02
     0.016     0.803   0.277527E-02
     0.016     0.811   0.265054E-02
     0.016     0.819   0.252755E-02
     0.016     0.827   0.240619E-02
     0.016     0.835   0.228640E-02
     0.016     0.843   0.216808E-02
     0.016     0.850   0.205118E-02
     0.016     0.858   0.193560E-02
     0.016     0.866   0.182128E-02
     0.016     0.874   0.170813E-02
     0.016     0.882   0.159609E-02
     0.016     0.890   0.148508E-02
     0.016     0.898   0.137503E-02
     0.016     0.906   0.126587E-02
     0.016     0.913   0.115753E-02
     0.016     0.921   0.104993E-02
     0.016     0.929   0.943019E-03
     0.016     0.937   0.836710E-03
     0.016     0.945   0.730945E-03
     0.016     0.953   0.625649E-03
     0.016     0.961   0.520759E-03
     0.016     0.969   0.416204E-03
     0.016     0.976   0.311919E-03
     0.016     0.984   0.207833E-03
     0.016     0.992   0.103883E-03
     0.016     1.000    0.00000    
     0.024     0.000   0.741428E-01
     0.024     0.008   0.723213E-01
     0.024     0.016   0.705440E-01
     0.024     0.024   0.688100E-01
     0.024     0.031   0.671180E-01
     0.024     0.039   0.654672E-01
     0.024     0.047   0.638564E-01
     0.024     0.055   0.622848E-01
     0.024     0.063   0.607512E-01
     0.024     0.071   0.592549E-01
     0.024     0.079   0.577949E-01
     0.024     0.087   0.563704E-01
     0.024     0.094   0.549803E-01
     0.024     0.102   0.536240E-01
     0.024     0.110   0.523005E-01
     0.024     0.118   0.510092E-01
     0.024     0.126   0.497491E-01
     0.024     0.134   0.485195E-01
     0.024     0.142   0.473197E-01
     0.024     0.150   0.461490E-01
     0.024     0.157   0.450066E-01
     0.024     0.165   0.438918E-01
     0.024     0.173   0.428040E-01
     0.024     0.181   0.417426E-01
     0.024     0.189   0.407068E-01
     0.024     0.197   0.396960E-01
     0.024     0.205   0.387097E-01
     0.024     0.213   0.377472E-01
     0.024     0.220   0.368080E-01
     0.024     0.228   0.358914E-01
     0.024     0.236   0.349971E-01
     0.024     0.244   0.341243E-01
     0.024     0.252   0.332726E-01
     0.024     0.260   0.324415E-01
     0.024     0.268   0.316305E-01
     0.024     0.276   0.308391E-01
     0.024     0.283   0.300669E-01
     0.024     0.291   0.293134E-01
     0.024     0.299   0.285781E-01
     0.024     0.307   0.278608E-01
     0.024     0.315   0.271609E-01
     0.024     0.323   0.264780E-01
     0.024     0.331   0.258119E-01
     0.024     0.339   0.251622E-01
     0.024     0.346   0.245286E-01
     0.024     0.354   0.239108E-01
     0.024     0.362   0.233086E-01
     0.024     0.370   0.227217E-01
     0.024     0.378   0.221502E-01
     0.024     0.386   0.215938E-01
     0.024     0.394   0.210527E-01
     0.024     0.402   0.205271E-01
     0.024     0.409   0.200173E-01
     0.024     0.417   0.195240E-01
     0.024     0.425   0.190485E-01
     0.024     0.433   0.185923E-01
     0.024     0.441   0.181582E-01
     0.024     0.449   0.177504E-01
     0.024     0.457   0.173757E-01
     0.024     0.465   0.170445E-01
     0.024     0.472   0.167732E-01
     0.024     0.480   0.165870E-01
     0.024     0.488   0.165198E-01
     0.024     0.496   0.166020E-01
     0.024     0.504   0.168028E-01
     0.024     0.512   0.168545E-01
     0.024     0.520   0.160325E-01
     0.024     0.528   0.150611E-01
     0.024     0.535   0.142072E-01
     0.024     0.543   0.135013E-01
     0.024     0.551   0.129125E-01
     0.024     0.559   0.124064E-01
     0.024     0.567   0.119575E-01
     0.024     0.575   0.115487E-01
     0.024     0.583   0.111692E-01
     0.024     0.591   0.108117E-01
     0.024     0.598   0.104715E-01
     0.024     0.606   0.101455E-01
     0.024     0.614   0.983142E-02
     0.024     0.622   0.952765E-02
     0.024     0.630   0.923298E-02
     0.024     0.638   0.894656E-02
     0.024     0.646   0.866763E-02
     0.024     0.654   0.839568E-02
     0.024     0.661   0.813020E-02
     0.024     0.669   0.787083E-02
     0.024     0.677   0.761720E-02
     0.024     0.685   0.736905E-02
     0.024     0.693   0.712608E-02
     0.024     0.701   0.688808E-02
     0.024     0.709   0.665480E-02
     0.024     0.717   0.642607E-02
     0.024     0.724   0.620167E-02
     0.024     0.732   0.598145E-02
     0.024     0.740   0.576520E-02
     0.024     0.748   0.555280E-02
     0.024     0.756   0.534406E-02
     0.024     0.764   0.513886E-02
     0.024     0.772   0.493702E-02
     0.024     0.780   0.473844E-02
     0.024     0.787   0.454293E-02
     0.024     0.795   0.435041E-02
     0.024     0.803   0.416072E-02
     0.024     0.811   0.397374E-02
     0.024     0.819   0.378934E-02
     0.024     0.827   0.360741E-02
     0.024     0.835   0.342780E-02
     0.024     0.843   0.325044E-02
     0.024     0.850   0.307517E-02
     0.024     0.858   0.290190E-02
     0.024     0.866   0.273049E-02
     0.024     0.874   0.256087E-02
     0.024     0.882   0.239289E-02
     0.024     0.890   0.222647E-02
     0.024     0.898   0.206148E-02
     0.024     0.906   0.189783E-02
     0.024     0.913   0.173539E-02
     0.024     0.921   0.157409E-02
     0.024     0.929   0.141380E-02
     0.024     0.937   0.125442E-02
     0.024     0.945   0.109585E-02
     0.024     0.953   0.937992E-03
     0.024     0.961   0.780735E-03
     0.024     0.969   0.623985E-03
     0.024     0.976   0.467636E-03
     0.024     0.984   0.311590E-03
     0.024     0.992   0.155744E-03
     0.024     1.000    0.00000    
     0.031     0.000   0.987864E-01
     0.031     0.008   0.963595E-01
     0.031     0.016   0.939915E-01
     0.031     0.024   0.916811E-01
     0.031     0.031   0.894268E-01
     0.031     0.039   0.872273E-01
     0.031     0.047   0.850811E-01
     0.031     0.055   0.829870E-01
     0.031     0.063   0.809438E-01
     0.031     0.071   0.789502E-01
     0.031     0.079   0.770049E-01
     0.031     0.087   0.751068E-01
     0.031     0.094   0.732547E-01
     0.031     0.102   0.714476E-01
     0.031     0.110   0.696842E-01
     0.031     0.118   0.679636E-01
     0.031     0.126   0.662847E-01
     0.031     0.134   0.646464E-01
     0.031     0.142   0.630479E-01
     0.031     0.150   0.614880E-01
     0.031     0.157   0.599659E-01
     0.031     0.165   0.584806E-01
     0.031     0.173   0.570312E-01
     0.031     0.181   0.556170E-01
     0.031     0.189   0.542369E-01
     0.031     0.197   0.528901E-01
     0.031     0.205   0.515760E-01
     0.031     0.213   0.502936E-01
     0.031     0.220   0.490422E-01
     0.031     0.228   0.478210E-01
     0.031     0.236   0.466293E-01
     0.031     0.244   0.454664E-01
     0.031     0.252   0.443317E-01
     0.031     0.260   0.432243E-01
     0.031     0.268   0.421437E-01
     0.031     0.276   0.410893E-01
     0.031     0.283   0.400603E-01
     0.031     0.291   0.390563E-01
     0.031     0.299   0.380766E-01
     0.031     0.307   0.371207E-01
     0.031     0.315   0.361881E-01
     0.031     0.323   0.352782E-01
     0.031     0.331   0.343906E-01
     0.031     0.339   0.335248E-01
     0.031     0.346   0.326804E-01
     0.031     0.354   0.318571E-01
     0.031     0.362   0.310544E-01
     0.031     0.370   0.302721E-01
     0.031     0.378   0.295101E-01
     0.031     0.386   0.287682E-01
     0.031     0.394   0.280463E-01
     0.031     0.402   0.273448E-01
     0.031     0.409   0.266639E-01
     0.031     0.417   0.260044E-01
     0.031     0.425   0.253673E-01
     0.031     0.433   0.247543E-01
     0.031     0.441   0.241679E-01
     0.031     0.449   0.236119E-01
     0.031     0.457   0.230915E-01
     0.031     0.465   0.226144E-01
     0.031     0.472   0.221906E-01
     0.031     0.480   0.218314E-01
     0.031     0.488   0.215452E-01
     0.031     0.496   0.213230E-01
     0.031     0.504   0.211080E-01
     0.031     0.512   0.207559E-01
     0.031     0.520   0.200818E-01
     0.031     0.528   0.192698E-01
     0.031     0.535   0.184639E-01
     0.031     0.543   0.177200E-01
     0.031     0.551   0.170467E-01
     0.031     0.559   0.164348E-01
     0.031     0.567   0.158724E-01
     0.031     0.575   0.153488E-01
     0.031     0.583   0.148559E-01
     0.031     0.591   0.143876E-01
     0.031     0.598   0.139396E-01
     0.031     0.606   0.135086E-01
     0.031     0.614   0.130925E-01
     0.031     0.622   0.126894E-01
     0.031     0.630   0.122980E-01
     0.031     0.638   0.119172E-01
     0.031     0.646   0.115462E-01
     0.031     0.654   0.111843E-01
     0.031     0.661   0.108310E-01
     0.031     0.669   0.104857E-01
     0.031     0.677   0.101480E-01
     0.031     0.685   0.981751E-02
     0.031     0.693   0.949395E-02
     0.031     0.701   0.917693E-02
     0.031     0.709   0.886623E-02
     0.031     0.717   0.856153E-02
     0.031     0.724   0.826263E-02
     0.031     0.732   0.796924E-02
     0.031     0.740   0.768118E-02
     0.031     0.748   0.739820E-02
     0.031     0.756   0.712013E-02
     0.031     0.764   0.684673E-02
     0.031     0.772   0.657784E-02
     0.031     0.780   0.631325E-02
     0.031     0.787   0.605281E-02
     0.031     0.795   0.579629E-02
     0.031     0.803   0.554357E-02
     0.031     0.811   0.529444E-02
     0.031     0.819   0.504877E-02
     0.031     0.827   0.480636E-02
     0.031     0.835   0.456709E-02
     0.031     0.843   0.433076E-02
     0.031     0.850   0.409725E-02
     0.031     0.858   0.386638E-02
     0.031     0.866   0.363803E-02
     0.031     0.874   0.341201E-02
     0.031     0.882   0.318822E-02
     0.031     0.890   0.296647E-02
     0.031     0.898   0.274666E-02
     0.031     0.906   0.252860E-02
     0.031     0.913   0.231219E-02
     0.031     0.921   0.209727E-02
     0.031     0.929   0.188370E-02
     0.031     0.937   0.167135E-02
     0.031     0.945   0.146008E-02
     0.031     0.953   0.124975E-02
     0.031     0.961   0.104023E-02
     0.031     0.969   0.831378E-03
     0.031     0.976   0.623066E-03
     0.031     0.984   0.415153E-03
     0.031     0.992   0.207510E-03
     0.031     1.000    0.00000    
     0.039     0.000   0.123370    
     0.039     0.008   0.120339    
     0.039     0.016   0.117382    
     0.039     0.024   0.114496    
     0.039     0.031   0.111681    
     0.039     0.039   0.108934    
     0.039     0.047   0.106254    
     0.039     0.055   0.103639    
     0.039     0.063   0.101087    
     0.039     0.071   0.985971E-01
     0.039     0.079   0.961677E-01
     0.039     0.087   0.937973E-01
     0.039     0.094   0.914843E-01
     0.039     0.102   0.892274E-01
     0.039     0.110   0.870253E-01
     0.039     0.118   0.848765E-01
     0.039     0.126   0.827798E-01
     0.039     0.134   0.807338E-01
     0.039     0.142   0.787374E-01
     0.039     0.150   0.767893E-01
     0.039     0.157   0.748884E-01
     0.039     0.165   0.730335E-01
     0.039     0.173   0.712235E-01
     0.039     0.181   0.694573E-01
     0.039     0.189   0.677337E-01
     0.039     0.197   0.660519E-01
     0.039     0.205   0.644107E-01
     0.039     0.213   0.628091E-01
     0.039     0.220   0.612463E-01
     0.039     0.228   0.597212E-01
     0.039     0.236   0.582329E-01
     0.039     0.244   0.567806E-01
     0.039     0.252   0.553634E-01
     0.039     0.260   0.539805E-01
     0.039     0.268   0.526309E-01
     0.039     0.276   0.513140E-01
     0.039     0.283   0.500290E-01
     0.039     0.291   0.487750E-01
     0.039     0.299   0.475515E-01
     0.039     0.307   0.463576E-01
     0.039     0.315   0.451928E-01
     0.039     0.323   0.440563E-01
     0.039     0.331   0.429477E-01
     0.039     0.339   0.418662E-01
     0.039     0.346   0.408114E-01
     0.039     0.354   0.397828E-01
     0.039     0.362   0.387800E-01
     0.039     0.370   0.378025E-01
     0.039     0.378   0.368501E-01
     0.039     0.386   0.359226E-01
     0.039     0.394   0.350199E-01
     0.039     0.402   0.341421E-01
     0.039     0.409   0.332895E-01
     0.039     0.417   0.324625E-01
     0.039     0.425   0.316623E-01
     0.039     0.433   0.308899E-01
     0.039     0.441   0.301475E-01
     0.039     0.449   0.294378E-01
     0.039     0.457   0.287643E-01
     0.039     0.465   0.281314E-01
     0.039     0.472   0.275434E-01
     0.039     0.480   0.270030E-01
     0.039     0.488   0.265068E-01
     0.039     0.496   0.260368E-01
     0.039     0.504   0.255507E-01
     0.039     0.512   0.249797E-01
     0.039     0.520   0.242691E-01
     0.039     0.528   0.234728E-01
     0.039     0.535   0.226587E-01
     0.039     0.543   0.218686E-01
     0.039     0.551   0.211194E-01
     0.039     0.559   0.204139E-01
     0.039     0.567   0.197487E-01
     0.039     0.575   0.191185E-01
     0.039     0.583   0.185182E-01
     0.039     0.591   0.179434E-01
     0.039     0.598   0.173907E-01
     0.039     0.606   0.168572E-01
     0.039     0.614   0.163407E-01
     0.039     0.622   0.158397E-01
     0.039     0.630   0.153525E-01
     0.039     0.638   0.148783E-01
     0.039     0.646   0.144159E-01
     0.039     0.654   0.139647E-01
     0.039     0.661   0.135239E-01
     0.039     0.669   0.130931E-01
     0.039     0.677   0.126717E-01
     0.039     0.685   0.122593E-01
     0.039     0.693   0.118554E-01
     0.039     0.701   0.114597E-01
     0.039     0.709   0.110718E-01
     0.039     0.717   0.106914E-01
     0.039     0.724   0.103182E-01
     0.039     0.732   0.995191E-02
     0.039     0.740   0.959221E-02
     0.039     0.748   0.923889E-02
     0.039     0.756   0.889164E-02
     0.039     0.764   0.855027E-02
     0.039     0.772   0.821448E-02
     0.039     0.780   0.788410E-02
     0.039     0.787   0.755884E-02
     0.039     0.795   0.723854E-02
     0.039     0.803   0.692293E-02
     0.039     0.811   0.661185E-02
     0.039     0.819   0.630503E-02
     0.039     0.827   0.600234E-02
     0.039     0.835   0.570351E-02
     0.039     0.843   0.540840E-02
     0.039     0.850   0.511677E-02
     0.039     0.858   0.482848E-02
     0.039     0.866   0.454328E-02
     0.039     0.874   0.426105E-02
     0.039     0.882   0.398155E-02
     0.039     0.890   0.370465E-02
     0.039     0.898   0.343012E-02
     0.039     0.906   0.315782E-02
     0.039     0.913   0.288755E-02
     0.039     0.921   0.261915E-02
     0.039     0.929   0.235244E-02
     0.039     0.937   0.208725E-02
     0.039     0.945   0.182340E-02
     0.039     0.953   0.156074E-02
     0.039     0.961   0.129908E-02
     0.039     0.969   0.103826E-02
     0.039     0.976   0.778108E-03
     0.039     0.984   0.518461E-03
     0.039     0.992   0.259146E-03
     0.039     1.000    0.00000    
     0.047     0.000   0.147877    
     0.047     0.008   0.144244    
     0.047     0.016   0.140700    
     0.047     0.024   0.137241    
     0.047     0.031   0.133867    
     0.047     0.039   0.130574    
     0.047     0.047   0.127361    
     0.047     0.055   0.124227    
     0.047     0.063   0.121168    
     0.047     0.071   0.118184    
     0.047     0.079   0.115272    
     0.047     0.087   0.112430    
     0.047     0.094   0.109658    
     0.047     0.102   0.106953    
     0.047     0.110   0.104313    
     0.047     0.118   0.101737    
     0.047     0.126   0.992241E-01
     0.047     0.134   0.967717E-01
     0.047     0.142   0.943787E-01
     0.047     0.150   0.920437E-01
     0.047     0.157   0.897651E-01
     0.047     0.165   0.875418E-01
     0.047     0.173   0.853721E-01
     0.047     0.181   0.832550E-01
     0.047     0.189   0.811891E-01
     0.047     0.197   0.791731E-01
     0.047     0.205   0.772058E-01
     0.047     0.213   0.752861E-01
     0.047     0.220   0.734128E-01
     0.047     0.228   0.715847E-01
     0.047     0.236   0.698008E-01
     0.047     0.244   0.680600E-01
     0.047     0.252   0.663612E-01
     0.047     0.260   0.647034E-01
     0.047     0.268   0.630857E-01
     0.047     0.276   0.615072E-01
     0.047     0.283   0.599667E-01
     0.047     0.291   0.584636E-01
     0.047     0.299   0.569969E-01
     0.047     0.307   0.555657E-01
     0.047     0.315   0.541693E-01
     0.047     0.323   0.528069E-01
     0.047     0.331   0.514778E-01
     0.047     0.339   0.501812E-01
     0.047     0.346   0.489165E-01
     0.047     0.354   0.476831E-01
     0.047     0.362   0.464804E-01
     0.047     0.370   0.453081E-01
     0.047     0.378   0.441655E-01
     0.047     0.386   0.430526E-01
     0.047     0.394   0.419689E-01
     0.047     0.402   0.409146E-01
     0.047     0.409   0.398896E-01
     0.047     0.417   0.388944E-01
     0.047     0.425   0.379295E-01
     0.047     0.433   0.369959E-01
     0.047     0.441   0.360947E-01
     0.047     0.449   0.352278E-01
     0.047     0.457   0.343968E-01
     0.047     0.465   0.336037E-01
     0.047     0.472   0.328489E-01
     0.047     0.480   0.321309E-01
     0.047     0.488   0.314423E-01