Title="Temperature Data"
Variables="X","Y","T"
 
Zone I=   128, J=   128, F=POINT
     0.000     0.000    0.00000    
     0.000     0.008    0.00000    
     0.000     0.016    0.00000    
     0.000     0.024    0.00000    
     0.000     0.031    0.00000    
     0.000     0.039    0.00000    
     0.000     0.047    0.00000    
     0.000     0.055    0.00000    
     0.000     0.063    0.00000    
     0.000     0.071    0.00000    
     0.000     0.079    0.00000    
     0.000     0.087    0.00000    
     0.000     0.094    0.00000    
     0.000     0.102    0.00000    
     0.000     0.110    0.00000    
     0.000     0.118    0.00000    
     0.000     0.126    0.00000    
     0.000     0.134    0.00000    
     0.000     0.142    0.00000    
     0.000     0.150    0.00000    
     0.000     0.157    0.00000    
     0.000     0.165    0.00000    
     0.000     0.173    0.00000    
     0.000     0.181    0.00000    
     0.000     0.189    0.00000    
     0.000     0.197    0.00000    
     0.000     0.205    0.00000    
     0.000     0.213    0.00000    
     0.000     0.220    0.00000    
     0.000     0.228    0.00000    
     0.000     0.236    0.00000    
     0.000     0.244    0.00000    
     0.000     0.252    0.00000    
     0.000     0.260    0.00000    
     0.000     0.268    0.00000    
     0.000     0.276    0.00000    
     0.000     0.283    0.00000    
     0.000     0.291    0.00000    
     0.000     0.299    0.00000    
     0.000     0.307    0.00000    
     0.000     0.315    0.00000    
     0.000     0.323    0.00000    
     0.000     0.331    0.00000    
     0.000     0.339    0.00000    
     0.000     0.346    0.00000    
     0.000     0.354    0.00000    
     0.000     0.362    0.00000    
     0.000     0.370    0.00000    
     0.000     0.378    0.00000    
     0.000     0.386    0.00000    
     0.000     0.394    0.00000    
     0.000     0.402    0.00000    
     0.000     0.409    0.00000    
     0.000     0.417    0.00000    
     0.000     0.425    0.00000    
     0.000     0.433    0.00000    
     0.000     0.441    0.00000    
     0.000     0.449    0.00000    
     0.000     0.457    0.00000    
     0.000     0.465    0.00000    
     0.000     0.472    0.00000    
     0.000     0.480    0.00000    
     0.000     0.488    0.00000    
     0.000     0.496    0.00000    
     0.000     0.504    0.00000    
     0.000     0.512    0.00000    
     0.000     0.520    0.00000    
     0.000     0.528    0.00000    
     0.000     0.535    0.00000    
     0.000     0.543    0.00000    
     0.000     0.551    0.00000    
     0.000     0.559    0.00000    
     0.000     0.567    0.00000    
     0.000     0.575    0.00000    
     0.000     0.583    0.00000    
     0.000     0.591    0.00000    
     0.000     0.598    0.00000    
     0.000     0.606    0.00000    
     0.000     0.614    0.00000    
     0.000     0.622    0.00000    
     0.000     0.630    0.00000    
     0.000     0.638    0.00000    
     0.000     0.646    0.00000    
     0.000     0.654    0.00000    
     0.000     0.661    0.00000    
     0.000     0.669    0.00000    
     0.000     0.677    0.00000    
     0.000     0.685    0.00000    
     0.000     0.693    0.00000    
     0.000     0.701    0.00000    
     0.000     0.709    0.00000    
     0.000     0.717    0.00000    
     0.000     0.724    0.00000    
     0.000     0.732    0.00000    
     0.000     0.740    0.00000    
     0.000     0.748    0.00000    
     0.000     0.756    0.00000    
     0.000     0.764    0.00000    
     0.000     0.772    0.00000    
     0.000     0.780    0.00000    
     0.000     0.787    0.00000    
     0.000     0.795    0.00000    
     0.000     0.803    0.00000    
     0.000     0.811    0.00000    
     0.000     0.819    0.00000    
     0.000     0.827    0.00000    
     0.000     0.835    0.00000    
     0.000     0.843    0.00000    
     0.000     0.850    0.00000    
     0.000     0.858    0.00000    
     0.000     0.866    0.00000    
     0.000     0.874    0.00000    
     0.000     0.882    0.00000    
     0.000     0.890    0.00000    
     0.000     0.898    0.00000    
     0.000     0.906    0.00000    
     0.000     0.913    0.00000    
     0.000     0.921    0.00000    
     0.000     0.929    0.00000    
     0.000     0.937    0.00000    
     0.000     0.945    0.00000    
     0.000     0.953    0.00000    
     0.000     0.961    0.00000    
     0.000     0.969    0.00000    
     0.000     0.976    0.00000    
     0.000     0.984    0.00000    
     0.000     0.992    0.00000    
     0.000     1.000    0.00000    
     0.008     0.000   0.247344E-01
     0.008     0.008   0.241182E-01
     0.008     0.016   0.235168E-01
     0.008     0.024   0.229298E-01
     0.008     0.031   0.223569E-01
     0.008     0.039   0.217976E-01
     0.008     0.047   0.212518E-01
     0.008     0.055   0.207191E-01
     0.008     0.063   0.201991E-01
     0.008     0.071   0.196916E-01
     0.008     0.079   0.191962E-01
     0.008     0.087   0.187127E-01
     0.008     0.094   0.182408E-01
     0.008     0.102   0.177801E-01
     0.008     0.110   0.173305E-01
     0.008     0.118   0.168917E-01
     0.008     0.126   0.164634E-01
     0.008     0.134   0.160454E-01
     0.008     0.142   0.156373E-01
     0.008     0.150   0.152391E-01
     0.008     0.157   0.148504E-01
     0.008     0.165   0.144709E-01
     0.008     0.173   0.141007E-01
     0.008     0.181   0.137392E-01
     0.008     0.189   0.133865E-01
     0.008     0.197   0.130422E-01
     0.008     0.205   0.127062E-01
     0.008     0.213   0.123782E-01
     0.008     0.220   0.120581E-01
     0.008     0.228   0.117457E-01
     0.008     0.236   0.114408E-01
     0.008     0.244   0.111432E-01
     0.008     0.252   0.108528E-01
     0.008     0.260   0.105693E-01
     0.008     0.268   0.102927E-01
     0.008     0.276   0.100227E-01
     0.008     0.283   0.975921E-02
     0.008     0.291   0.950205E-02
     0.008     0.299   0.925114E-02
     0.008     0.307   0.900621E-02
     0.008     0.315   0.876725E-02
     0.008     0.323   0.853399E-02
     0.008     0.331   0.830642E-02
     0.008     0.339   0.808428E-02
     0.008     0.346   0.786756E-02
     0.008     0.354   0.765602E-02
     0.008     0.362   0.744965E-02
     0.008     0.370   0.724821E-02
     0.008     0.378   0.705170E-02
     0.008     0.386   0.685988E-02
     0.008     0.394   0.667277E-02
     0.008     0.402   0.649012E-02
     0.008     0.409   0.631196E-02
     0.008     0.417   0.613804E-02
     0.008     0.425   0.596841E-02
     0.008     0.433   0.580282E-02
     0.008     0.441   0.564131E-02
     0.008     0.449   0.548364E-02
     0.008     0.457   0.532986E-02
     0.008     0.465   0.517973E-02
     0.008     0.472   0.503332E-02
     0.008     0.480   0.489037E-02
     0.008     0.488   0.475096E-02
     0.008     0.496   0.461485E-02
     0.008     0.504   0.448210E-02
     0.008     0.512   0.435249E-02
     0.008     0.520   0.422608E-02
     0.008     0.528   0.410265E-02
     0.008     0.535   0.398226E-02
     0.008     0.543   0.386470E-02
     0.008     0.551   0.375003E-02
     0.008     0.559   0.363805E-02
     0.008     0.567   0.352881E-02
     0.008     0.575   0.342212E-02
     0.008     0.583   0.331804E-02
     0.008     0.591   0.321636E-02
     0.008     0.598   0.311717E-02
     0.008     0.606   0.302025E-02
     0.008     0.614   0.292569E-02
     0.008     0.622   0.283327E-02
     0.008     0.630   0.274309E-02
     0.008     0.638   0.265493E-02
     0.008     0.646   0.256889E-02
     0.008     0.654   0.248475E-02
     0.008     0.661   0.240261E-02
     0.008     0.669   0.232228E-02
     0.008     0.677   0.224382E-02
     0.008     0.685   0.216706E-02
     0.008     0.693   0.209207E-02
     0.008     0.701   0.201867E-02
     0.008     0.709   0.194693E-02
     0.008     0.717   0.187668E-02
     0.008     0.724   0.180800E-02
     0.008     0.732   0.174071E-02
     0.008     0.740   0.167488E-02
     0.008     0.748   0.161034E-02
     0.008     0.756   0.154717E-02
     0.008     0.764   0.148521E-02
     0.008     0.772   0.142451E-02
     0.008     0.780   0.136493E-02
     0.008     0.787   0.130652E-02
     0.008     0.795   0.124915E-02
     0.008     0.803   0.119285E-02
     0.008     0.811   0.113750E-02
     0.008     0.819   0.108314E-02
     0.008     0.827   0.102965E-02
     0.008     0.835   0.977054E-03
     0.008     0.843   0.925244E-03
     0.008     0.850   0.874249E-03
     0.008     0.858   0.823959E-03
     0.008     0.866   0.774398E-03
     0.008     0.874   0.725463E-03
     0.008     0.882   0.677173E-03
     0.008     0.890   0.629434E-03
     0.008     0.898   0.582256E-03
     0.008     0.906   0.535553E-03
     0.008     0.913   0.489330E-03
     0.008     0.921   0.443507E-03
     0.008     0.929   0.398083E-03
     0.008     0.937   0.352985E-03
     0.008     0.945   0.308205E-03
     0.008     0.953   0.263678E-03
     0.008     0.961   0.219389E-03
     0.008     0.969   0.175281E-03
     0.008     0.976   0.131331E-03
     0.008     0.984   0.874891E-04
     0.008     0.992   0.437266E-04
     0.008     1.000    0.00000    
     0.016     0.000   0.494537E-01
     0.016     0.008   0.482217E-01
     0.016     0.016   0.470192E-01
     0.016     0.024   0.458456E-01
     0.016     0.031   0.447000E-01
     0.016     0.039   0.435819E-01
     0.016     0.047   0.424906E-01
     0.016     0.055   0.414255E-01
     0.016     0.063   0.403858E-01
     0.016     0.071   0.393711E-01
     0.016     0.079   0.383806E-01
     0.016     0.087   0.374139E-01
     0.016     0.094   0.364703E-01
     0.016     0.102   0.355494E-01
     0.016     0.110   0.346505E-01
     0.016     0.118   0.337731E-01
     0.016     0.126   0.329167E-01
     0.016     0.134   0.320809E-01
     0.016     0.142   0.312651E-01
     0.016     0.150   0.304688E-01
     0.016     0.157   0.296916E-01
     0.016     0.165   0.289331E-01
     0.016     0.173   0.281927E-01
     0.016     0.181   0.274701E-01
     0.016     0.189   0.267647E-01
     0.016     0.197   0.260764E-01
     0.016     0.205   0.254045E-01
     0.016     0.213   0.247488E-01
     0.016     0.220   0.241088E-01
     0.016     0.228   0.234842E-01
     0.016     0.236   0.228745E-01
     0.016     0.244   0.222796E-01
     0.016     0.252   0.216988E-01
     0.016     0.260   0.211321E-01
     0.016     0.268   0.205790E-01
     0.016     0.276   0.200393E-01
     0.016     0.283   0.195124E-01
     0.016     0.291   0.189983E-01
     0.016     0.299   0.184965E-01
     0.016     0.307   0.180070E-01
     0.016     0.315   0.175291E-01
     0.016     0.323   0.170628E-01
     0.016     0.331   0.166077E-01
     0.016     0.339   0.161637E-01
     0.016     0.346   0.157302E-01
     0.016     0.354   0.153074E-01
     0.016     0.362   0.148947E-01
     0.016     0.370   0.144921E-01
     0.016     0.378   0.140990E-01
     0.016     0.386   0.137156E-01
     0.016     0.394   0.133414E-01
     0.016     0.402   0.129763E-01
     0.016     0.409   0.126200E-01
     0.016     0.417   0.122724E-01
     0.016     0.425   0.119331E-01
     0.016     0.433   0.116022E-01
     0.016     0.441   0.112791E-01
     0.016     0.449   0.109640E-01
     0.016     0.457   0.106564E-01
     0.016     0.465   0.103564E-01
     0.016     0.472   0.100635E-01
     0.016     0.480   0.977783E-02
     0.016     0.488   0.949894E-02
     0.016     0.496   0.922695E-02
     0.016     0.504   0.896139E-02
     0.016     0.512   0.870239E-02
     0.016     0.520   0.844950E-02
     0.016     0.528   0.820286E-02
     0.016     0.535   0.796201E-02
     0.016     0.543   0.772710E-02
     0.016     0.551   0.749770E-02
     0.016     0.559   0.727394E-02
     0.016     0.567   0.705539E-02
     0.016     0.575   0.684222E-02
     0.016     0.583   0.663398E-02
     0.016     0.591   0.643083E-02
     0.016     0.598   0.623237E-02
     0.016     0.606   0.603873E-02
     0.016     0.614   0.584952E-02
     0.016     0.622   0.566489E-02
     0.016     0.630   0.548443E-02
     0.016     0.638   0.530831E-02
     0.016     0.646   0.513613E-02
     0.016     0.654   0.496805E-02
     0.016     0.661   0.480369E-02
     0.016     0.669   0.464320E-02
     0.016     0.677   0.448620E-02
     0.016     0.685   0.433285E-02
     0.016     0.693   0.418279E-02
     0.016     0.701   0.403616E-02
     0.016     0.709   0.389261E-02
     0.016     0.717   0.375228E-02
     0.016     0.724   0.361483E-02
     0.016     0.732   0.348041E-02
     0.016     0.740   0.334867E-02
     0.016     0.748   0.321976E-02
     0.016     0.756   0.309335E-02
     0.016     0.764   0.296956E-02
     0.016     0.772   0.284810E-02
     0.016     0.780   0.272908E-02
     0.016     0.787   0.261220E-02
     0.016     0.795   0.249758E-02
     0.016     0.803   0.238493E-02
     0.016     0.811   0.227435E-02
     0.016     0.819   0.216558E-02
     0.016     0.827   0.205870E-02
     0.016     0.835   0.195347E-02
     0.016     0.843   0.184996E-02
     0.016     0.850   0.174793E-02
     0.016     0.858   0.164745E-02
     0.016     0.866   0.154829E-02
     0.016     0.874   0.145051E-02
     0.016     0.882   0.135391E-02
     0.016     0.890   0.125851E-02
     0.016     0.898   0.116413E-02
     0.016     0.906   0.107080E-02
     0.016     0.913   0.978341E-03
     0.016     0.921   0.886761E-03
     0.016     0.929   0.795906E-03
     0.016     0.937   0.705768E-03
     0.016     0.945   0.616208E-03
     0.016     0.953   0.527205E-03
     0.016     0.961   0.438635E-03
     0.016     0.969   0.350461E-03
     0.016     0.976   0.262576E-03
     0.016     0.984   0.174928E-03
     0.016     0.992   0.874245E-04
     0.016     1.000    0.00000    
     0.024     0.000   0.741428E-01
     0.024     0.008   0.722957E-01
     0.024     0.016   0.704929E-01
     0.024     0.024   0.687333E-01
     0.024     0.031   0.670158E-01
     0.024     0.039   0.653395E-01
     0.024     0.047   0.637034E-01
     0.024     0.055   0.621065E-01
     0.024     0.063   0.605478E-01
     0.024     0.071   0.590265E-01
     0.024     0.079   0.575416E-01
     0.024     0.087   0.560922E-01
     0.024     0.094   0.546776E-01
     0.024     0.102   0.532969E-01
     0.024     0.110   0.519492E-01
     0.024     0.118   0.506338E-01
     0.024     0.126   0.493500E-01
     0.024     0.134   0.480968E-01
     0.024     0.142   0.468737E-01
     0.024     0.150   0.456799E-01
     0.024     0.157   0.445148E-01
     0.024     0.165   0.433774E-01
     0.024     0.173   0.422675E-01
     0.024     0.181   0.411840E-01
     0.024     0.189   0.401267E-01
     0.024     0.197   0.390946E-01
     0.024     0.205   0.380874E-01
     0.024     0.213   0.371042E-01
     0.024     0.220   0.361448E-01
     0.024     0.228   0.352082E-01
     0.024     0.236   0.342943E-01
     0.024     0.244   0.334022E-01
     0.024     0.252   0.325317E-01
     0.024     0.260   0.316820E-01
     0.024     0.268   0.308528E-01
     0.024     0.276   0.300435E-01
     0.024     0.283   0.292538E-01
     0.024     0.291   0.284829E-01
     0.024     0.299   0.277308E-01
     0.024     0.307   0.269966E-01
     0.024     0.315   0.262803E-01
     0.024     0.323   0.255811E-01
     0.024     0.331   0.248989E-01
     0.024     0.339   0.242330E-01
     0.024     0.346   0.235834E-01
     0.024     0.354   0.229493E-01
     0.024     0.362   0.223307E-01
     0.024     0.370   0.217269E-01
     0.024     0.378   0.211379E-01
     0.024     0.386   0.205629E-01
     0.024     0.394   0.200020E-01
     0.024     0.402   0.194545E-01
     0.024     0.409   0.189204E-01
     0.024     0.417   0.183991E-01
     0.024     0.425   0.178906E-01
     0.024     0.433   0.173943E-01
     0.024     0.441   0.169101E-01
     0.024     0.449   0.164375E-01
     0.024     0.457   0.159765E-01
     0.024     0.465   0.155265E-01
     0.024     0.472   0.150876E-01
     0.024     0.480   0.146592E-01
     0.024     0.488   0.142413E-01
     0.024     0.496   0.138333E-01
     0.024     0.504   0.134353E-01
     0.024     0.512   0.130468E-01
     0.024     0.520   0.126679E-01
     0.024     0.528   0.122979E-01
     0.024     0.535   0.119370E-01
     0.024     0.543   0.115846E-01
     0.024     0.551   0.112409E-01
     0.024     0.559   0.109052E-01
     0.024     0.567   0.105778E-01
     0.024     0.575   0.102580E-01
     0.024     0.583   0.994600E-02
     0.024     0.591   0.964122E-02
     0.024     0.598   0.934389E-02
     0.024     0.606   0.905337E-02
     0.024     0.614   0.876991E-02
     0.024     0.622   0.849289E-02
     0.024     0.630   0.822255E-02
     0.024     0.638   0.795830E-02
     0.024     0.646   0.770037E-02
     0.024     0.654   0.744818E-02
     0.024     0.661   0.720196E-02
     0.024     0.669   0.696115E-02
     0.024     0.677   0.672596E-02
     0.024     0.685   0.649587E-02
     0.024     0.693   0.627108E-02
     0.024     0.701   0.605106E-02
     0.024     0.709   0.583602E-02
     0.024     0.717   0.562546E-02
     0.024     0.724   0.541957E-02
     0.024     0.732   0.521786E-02
     0.024     0.740   0.502053E-02
     0.024     0.748   0.482709E-02
     0.024     0.756   0.463773E-02
     0.024     0.764   0.445199E-02
     0.024     0.772   0.427005E-02
     0.024     0.780   0.409145E-02
     0.024     0.787   0.391637E-02
     0.024     0.795   0.374439E-02
     0.024     0.803   0.357563E-02
     0.024     0.811   0.340972E-02
     0.024     0.819   0.324678E-02
     0.024     0.827   0.308642E-02
     0.024     0.835   0.292877E-02
     0.024     0.843   0.277347E-02
     0.024     0.850   0.262061E-02
     0.024     0.858   0.246986E-02
     0.024     0.866   0.232130E-02
     0.024     0.874   0.217461E-02
     0.024     0.882   0.202986E-02
     0.024     0.890   0.188676E-02
     0.024     0.898   0.174534E-02
     0.024     0.906   0.160535E-02
     0.024     0.913   0.146679E-02
     0.024     0.921   0.132944E-02
     0.024     0.929   0.119327E-02
     0.024     0.937   0.105809E-02
     0.024     0.945   0.923860E-03
     0.024     0.953   0.790388E-03
     0.024     0.961   0.657631E-03
     0.024     0.969   0.525413E-03
     0.024     0.976   0.393671E-03
     0.024     0.984   0.262253E-03
     0.024     0.992   0.131073E-03
     0.024     1.000    0.00000    
     0.031     0.000   0.987864E-01
     0.031     0.008   0.963254E-01
     0.031     0.016   0.939234E-01
     0.031     0.024   0.915789E-01
     0.031     0.031   0.892906E-01
     0.031     0.039   0.870572E-01
     0.031     0.047   0.848772E-01
     0.031     0.055   0.827496E-01
     0.031     0.063   0.806728E-01
     0.031     0.071   0.786458E-01
     0.031     0.079   0.766673E-01
     0.031     0.087   0.747363E-01
     0.031     0.094   0.728514E-01
     0.031     0.102   0.710118E-01
     0.031     0.110   0.692161E-01
     0.031     0.118   0.674636E-01
     0.031     0.126   0.657529E-01
     0.031     0.134   0.640833E-01
     0.031     0.142   0.624536E-01
     0.031     0.150   0.608631E-01
     0.031     0.157   0.593105E-01
     0.031     0.165   0.577954E-01
     0.031     0.173   0.563163E-01
     0.031     0.181   0.548729E-01
     0.031     0.189   0.534640E-01
     0.031     0.197   0.520890E-01
     0.031     0.205   0.507468E-01
     0.031     0.213   0.494370E-01
     0.031     0.220   0.481585E-01
     0.031     0.228   0.469109E-01
     0.031     0.236   0.456930E-01
     0.031     0.244   0.445046E-01
     0.031     0.252   0.433445E-01
     0.031     0.260   0.422126E-01
     0.031     0.268   0.411076E-01
     0.031     0.276   0.400295E-01
     0.031     0.283   0.389770E-01
     0.031     0.291   0.379502E-01
     0.031     0.299   0.369478E-01
     0.031     0.307   0.359699E-01
     0.031     0.315   0.350152E-01
     0.031     0.323   0.340839E-01
     0.031     0.331   0.331747E-01
     0.031     0.339   0.322878E-01
     0.031     0.346   0.314220E-01
     0.031     0.354   0.305774E-01
     0.031     0.362   0.297529E-01
     0.031     0.370   0.289486E-01
     0.031     0.378   0.281635E-01
     0.031     0.386   0.273977E-01
     0.031     0.394   0.266501E-01
     0.031     0.402   0.259209E-01
     0.031     0.409   0.252091E-01
     0.031     0.417   0.245148E-01
     0.031     0.425   0.238370E-01
     0.031     0.433   0.231759E-01
     0.031     0.441   0.225306E-01
     0.031     0.449   0.219012E-01
     0.031     0.457   0.212867E-01
     0.031     0.465   0.206874E-01
     0.031     0.472   0.201023E-01
     0.031     0.480   0.195317E-01
     0.031     0.488   0.189746E-01
     0.031     0.496   0.184313E-01
     0.031     0.504   0.179008E-01
     0.031     0.512   0.173835E-01
     0.031     0.520   0.168783E-01
     0.031     0.528   0.163856E-01
     0.031     0.535   0.159045E-01
     0.031     0.543   0.154353E-01
     0.031     0.551   0.149770E-01
     0.031     0.559   0.145301E-01
     0.031     0.567   0.140935E-01
     0.031     0.575   0.136677E-01
     0.031     0.583   0.132517E-01
     0.031     0.591   0.128459E-01
     0.031     0.598   0.124495E-01
     0.031     0.606   0.120627E-01
     0.031     0.614   0.116847E-01
     0.031     0.622   0.113159E-01
     0.031     0.630   0.109554E-01
     0.031     0.638   0.106036E-01
     0.031     0.646   0.102597E-01
     0.031     0.654   0.992395E-02
     0.031     0.661   0.959562E-02
     0.031     0.669   0.927503E-02
     0.031     0.677   0.896142E-02
     0.031     0.685   0.865510E-02
     0.031     0.693   0.835534E-02
     0.031     0.701   0.806244E-02
     0.031     0.709   0.777569E-02
     0.031     0.717   0.749537E-02
     0.031     0.724   0.722082E-02
     0.031     0.732   0.695229E-02
     0.031     0.740   0.668915E-02
     0.031     0.748   0.643163E-02
     0.031     0.756   0.617912E-02
     0.031     0.764   0.593185E-02
     0.031     0.772   0.568923E-02
     0.031     0.780   0.545147E-02
     0.031     0.787   0.521801E-02
     0.031     0.795   0.498904E-02
     0.031     0.803   0.476402E-02
     0.031     0.811   0.454313E-02
     0.031     0.819   0.432586E-02
     0.031     0.827   0.411237E-02
     0.031     0.835   0.390217E-02
     0.031     0.843   0.369539E-02
     0.031     0.850   0.349158E-02
     0.031     0.858   0.329086E-02
     0.031     0.866   0.309279E-02
     0.031     0.874   0.289747E-02
     0.031     0.882   0.270450E-02
     0.031     0.890   0.251393E-02
     0.031     0.898   0.232542E-02
     0.031     0.906   0.213898E-02
     0.031     0.913   0.195429E-02
     0.031     0.921   0.177135E-02
     0.031     0.929   0.158986E-02
     0.031     0.937   0.140981E-02
     0.031     0.945   0.123091E-02
     0.031     0.953   0.105312E-02
     0.031     0.961   0.876197E-03
     0.031     0.969   0.700065E-03
     0.031     0.976   0.524509E-03
     0.031     0.984   0.349429E-03
     0.031     0.992   0.174635E-03
     0.031     1.000    0.00000    
     0.039     0.000   0.123370    
     0.039     0.008   0.120296    
     0.039     0.016   0.117296    
     0.039     0.024   0.114369    
     0.039     0.031   0.111511    
     0.039     0.039   0.108722    
     0.039     0.047   0.105999    
     0.039     0.055   0.103342    
     0.039     0.063   0.100748    
     0.039     0.071   0.982169E-01
     0.039     0.079   0.957462E-01
     0.039     0.087   0.933345E-01
     0.039     0.094   0.909807E-01
     0.039     0.102   0.886832E-01
     0.039     0.110   0.864408E-01
     0.039     0.118   0.842520E-01
     0.039     0.126   0.821157E-01
     0.039     0.134   0.800305E-01
     0.039     0.142   0.779954E-01
     0.039     0.150   0.760089E-01
     0.039     0.157   0.740702E-01
     0.039     0.165   0.721778E-01
     0.039     0.173   0.703309E-01
     0.039     0.181   0.685281E-01
     0.039     0.189   0.667687E-01
     0.039     0.197   0.650514E-01
     0.039     0.205   0.633754E-01
     0.039     0.213   0.617394E-01
     0.039     0.220   0.601430E-01
     0.039     0.228   0.585846E-01
     0.039     0.236   0.570639E-01
     0.039     0.244   0.555795E-01
     0.039     0.252   0.541310E-01
     0.039     0.260   0.527171E-01
     0.039     0.268   0.513375E-01
     0.039     0.276   0.499907E-01
     0.039     0.283   0.486767E-01
     0.039     0.291   0.473940E-01
     0.039     0.299   0.461425E-01
     0.039     0.307   0.449209E-01
     0.039     0.315   0.437290E-01
     0.039     0.323   0.425656E-01
     0.039     0.331   0.414305E-01
     0.039     0.339   0.403225E-01
     0.039     0.346   0.392416E-01
     0.039     0.354   0.381865E-01
     0.039     0.362   0.371572E-01
     0.039     0.370   0.361524E-01
     0.039     0.378   0.351723E-01
     0.039     0.386   0.342155E-01
     0.039     0.394   0.332822E-01
     0.039     0.402   0.323712E-01
     0.039     0.409   0.314826E-01
     0.039     0.417   0.306152E-01
     0.039     0.425   0.297691E-01
     0.039     0.433   0.289431E-01
     0.039     0.441   0.281376E-01
     0.039     0.449   0.273511E-01
     0.039     0.457   0.265841E-01
     0.039     0.465   0.258353E-01
     0.039     0.472   0.251050E-01
     0.039     0.480   0.243921E-01
     0.039     0.488   0.236967E-01
     0.039     0.496   0.230178E-01
     0.039     0.504   0.223557E-01
     0.039     0.512   0.217092E-01
     0.039     0.520   0.210787E-01
     0.039     0.528   0.204631E-01
     0.039     0.535   0.198626E-01
     0.039     0.543   0.192762E-01
     0.039     0.551   0.187043E-01
     0.039     0.559   0.181457E-01
     0.039     0.567   0.176009E-01
     0.039     0.575   0.170687E-01
     0.039     0.583   0.165496E-01
     0.039     0.591   0.160425E-01
     0.039     0.598   0.155477E-01
     0.039     0.606   0.150643E-01
     0.039     0.614   0.145927E-01
     0.039     0.622   0.141317E-01
     0.039     0.630   0.136819E-01
     0.039     0.638   0.132422E-01
     0.039     0.646   0.128130E-01
     0.039     0.654   0.123934E-01
     0.039     0.661   0.119837E-01
     0.039     0.669   0.115830E-01
     0.039     0.677   0.111917E-01
     0.039     0.685   0.108088E-01
     0.039     0.693   0.104347E-01
     0.039     0.701   0.100686E-01
     0.039     0.709   0.971083E-02
     0.039     0.717   0.936047E-02
     0.039     0.724   0.901788E-02
     0.039     0.732   0.868225E-02
     0.039     0.740   0.835389E-02
     0.039     0.748   0.803202E-02
     0.039     0.756   0.771694E-02
     0.039     0.764   0.740788E-02
     0.039     0.772   0.710513E-02
     0.039     0.780   0.680797E-02
     0.039     0.787   0.651664E-02
     0.039     0.795   0.623046E-02
     0.039     0.803   0.594967E-02
     0.039     0.811   0.567360E-02
     0.039     0.819   0.540246E-02
     0.039     0.827   0.513565E-02
     0.039     0.835   0.487332E-02
     0.039     0.843   0.461491E-02
     0.039     0.850   0.436055E-02
     0.039     0.858   0.410972E-02
     0.039     0.866   0.386252E-02
     0.039     0.874   0.361844E-02
     0.039     0.882   0.337758E-02
     0.039     0.890   0.313947E-02
     0.039     0.898   0.290416E-02
     0.039     0.906   0.267122E-02
     0.039     0.913   0.244067E-02
     0.039     0.921   0.221211E-02
     0.039     0.929   0.198555E-02
     0.039     0.937   0.176061E-02
     0.039     0.945   0.153725E-02
     0.039     0.953   0.131516E-02
     0.039     0.961   0.109426E-02
     0.039     0.969   0.874260E-03
     0.039     0.976   0.655048E-03
     0.039     0.984   0.436376E-03
     0.039     0.992   0.218098E-03
     0.039     1.000    0.00000    
     0.047     0.000   0.147877    
     0.047     0.008   0.144193    
     0.047     0.016   0.140598    
     0.047     0.024   0.137088    
     0.047     0.031   0.133663    
     0.047     0.039   0.130319    
     0.047     0.047   0.127056    
     0.047     0.055   0.123871    
     0.047     0.063   0.120762    
     0.047     0.071   0.117728    
     0.047     0.079   0.114766    
     0.047     0.087   0.111876    
     0.047     0.094   0.109054    
     0.047     0.102   0.106300    
     0.047     0.110   0.103612    
     0.047     0.118   0.100989    
     0.047     0.126   0.984282E-01
     0.047     0.134   0.959289E-01
     0.047     0.142   0.934893E-01
     0.047     0.150   0.911084E-01
     0.047     0.157   0.887844E-01
     0.047     0.165   0.865162E-01
     0.047     0.173   0.843022E-01
     0.047     0.181   0.821415E-01
     0.047     0.189   0.800324E-01
     0.047     0.197   0.779741E-01
     0.047     0.205   0.759650E-01
     0.047     0.213   0.740043E-01
     0.047     0.220   0.720904E-01
     0.047     0.228   0.702228E-01
     0.047     0.236   0.683997E-01
     0.047     0.244   0.666207E-01
     0.047     0.252   0.648842E-01
     0.047     0.260   0.631897E-01
     0.047     0.268   0.615356E-01
     0.047     0.276   0.599217E-01
     0.047     0.283   0.583463E-01
     0.047     0.291   0.568092E-01
     0.047     0.299   0.553087E-01
     0.047     0.307   0.538448E-01
     0.047     0.315   0.524157E-01
     0.047     0.323   0.510215E-01
     0.047     0.331   0.496606E-01
     0.047     0.339   0.483329E-01
     0.047     0.346   0.470368E-01
     0.047     0.354   0.457725E-01
     0.047     0.362   0.445383E-01
     0.047     0.370   0.433344E-01
     0.047     0.378   0.421591E-01
     0.047     0.386   0.410127E-01
     0.047     0.394   0.398936E-01
     0.047     0.402   0.388021E-01
     0.047     0.409   0.377365E-01
     0.047     0.417   0.366972E-01
     0.047     0.425   0.356826E-01
     0.047     0.433   0.346930E-01
     0.047     0.441   0.337269E-01
     0.047     0.449   0.327847E-01
     0.047     0.457   0.318649E-01
     0.047     0.465   0.309678E-01
     0.047     0.472   0.300920E-01
     0.047     0.480   0.292378E-01
     0.047     0.488   0.284039E-01