Title="Temperature Data"
Variables="X","Y","T"
 
Zone I=   128, J=   128, F=POINT
     0.000     0.000   0.689945-309
     0.000     0.008   0.689945-309
     0.000     0.016    0.00000    
     0.000     0.024    0.00000    
     0.000     0.031   0.601347-153
     0.000     0.039   0.603687-153
     0.000     0.047   0.337734E-56
     0.000     0.055   0.138268E-46
     0.000     0.063   0.655491-259
     0.000     0.071   0.130371E-75
     0.000     0.079   0.696312E-76
     0.000     0.087   0.247380E-90
     0.000     0.094   0.128225-152
     0.000     0.102   0.601347-153
     0.000     0.110   0.603687-153
     0.000     0.118   0.200358E-75
     0.000     0.126   0.601037E-66
     0.000     0.134   0.655491-259
     0.000     0.142   0.130371E-75
     0.000     0.150   0.696312E-76
     0.000     0.157   0.247380E-90
     0.000     0.165   0.120854-152
     0.000     0.173   0.601347-153
     0.000     0.181   0.603687-153
     0.000     0.189   0.165583E-46
     0.000     0.197   0.600893E-66
     0.000     0.205   0.655491-259
     0.000     0.213   0.130371E-75
     0.000     0.220   0.696312E-76
     0.000     0.228   0.247380E-90
     0.000     0.236   0.135916-152
     0.000     0.244   0.601347-153
     0.000     0.252   0.603687-153
     0.000     0.260   0.601033E-66
     0.000     0.268   0.104015E-41
     0.000     0.276   0.655491-259
     0.000     0.283   0.130371E-75
     0.000     0.291   0.696312E-76
     0.000     0.299   0.247380E-90
     0.000     0.307   0.165749-152
     0.000     0.315   0.601347-153
     0.000     0.323   0.603687-153
     0.000     0.331   0.771446E-42
     0.000     0.339   0.350520E-32
     0.000     0.346   0.655491-259
     0.000     0.354   0.130371E-75
     0.000     0.362   0.696312E-76
     0.000     0.370   0.247380E-90
     0.000     0.378   0.143374-152
     0.000     0.386   0.601347-153
     0.000     0.394   0.603687-153
     0.000     0.402   0.466819E-61
     0.000     0.409   0.108690E-70
     0.000     0.417   0.655491-259
     0.000     0.425   0.130371E-75
     0.000     0.433   0.696312E-76
     0.000     0.441   0.247380E-90
     0.000     0.449   0.135858-152
     0.000     0.457   0.601347-153
     0.000     0.465   0.603687-153
     0.000     0.472   0.389112E-32
     0.000     0.480   0.350670E-32
     0.000     0.488   0.655491-259
     0.000     0.496   0.130371E-75
     0.000     0.504   0.696312E-76
     0.000     0.512   0.247380E-90
     0.000     0.520   0.165691-152
     0.000     0.528   0.601347-153
     0.000     0.535   0.603687-153
     0.000     0.543   0.231819E-51
     0.000     0.551   0.151952E-46
     0.000     0.559   0.655491-259
     0.000     0.567   0.130371E-75
     0.000     0.575   0.696312E-76
     0.000     0.583   0.247380E-90
     0.000     0.591   0.143112-152
     0.000     0.598   0.601347-153
     0.000     0.606   0.603687-153
     0.000     0.614   0.209028E-75
     0.000     0.622   0.638274E-66
     0.000     0.630   0.655491-259
     0.000     0.638   0.130371E-75
     0.000     0.646   0.696312E-76
     0.000     0.654   0.247380E-90
     0.000     0.661   0.143170-152
     0.000     0.669   0.601347-153
     0.000     0.677   0.603687-153
     0.000     0.685   0.172452E-46
     0.000     0.693   0.385529E-56
     0.000     0.701   0.655491-259
     0.000     0.709   0.130371E-75
     0.000     0.717   0.696312E-76
     0.000     0.724   0.247380E-90
     0.000     0.732   0.173091-152
     0.000     0.740   0.601347-153
     0.000     0.748   0.603687-153
     0.000     0.756   0.638270E-66
     0.000     0.764   0.289881E-56
     0.000     0.772   0.655491-259
     0.000     0.780   0.130371E-75
     0.000     0.787   0.696312E-76
     0.000     0.795   0.247380E-90
     0.000     0.803   0.180462-152
     0.000     0.811   0.601347-153
     0.000     0.819   0.603687-153
     0.000     0.827   0.535077E-37
     0.000     0.835   0.860102E-66
     0.000     0.843   0.655491-259
     0.000     0.850   0.130371E-75
     0.000     0.858   0.696312E-76
     0.000     0.866   0.247380E-90
     0.000     0.874   0.135858-152
     0.000     0.882   0.601347-153
     0.000     0.890   0.603687-153
     0.000     0.898   0.491223E-61
     0.000     0.906   0.138374E-46
     0.000     0.913   0.655491-259
     0.000     0.921   0.130371E-75
     0.000     0.929   0.696312E-76
     0.000     0.937   0.247380E-90
     0.000     0.945   0.187891-152
     0.000     0.953   0.601347-153
     0.000     0.961   0.603687-153
     0.000     0.969   0.408446E-32
     0.000     0.976   0.787077E-66
     0.000     0.984   0.655491-259
     0.000     0.992   0.130371E-75
     0.000     1.000   0.696312E-76
     0.008     0.000   0.247380E-90
     0.008     0.008   0.579005E+22
     0.008     0.016   0.123354E+23
     0.008     0.024   0.203914E+23
     0.008     0.031   0.306757E+23
     0.008     0.039   0.437677E+23
     0.008     0.047   0.599405E+23
     0.008     0.055   0.789664E+23
     0.008     0.063   0.999773E+23
     0.008     0.071   0.121492E+24
     0.008     0.079   0.141688E+24
     0.008     0.087   0.158905E+24
     0.008     0.094   0.172224E+24
     0.008     0.102   0.181875E+24
     0.008     0.110   0.189243E+24
     0.008     0.118   0.196376E+24
     0.008     0.126   0.205157E+24
     0.008     0.134   0.216456E+24
     0.008     0.142   0.229663E+24
     0.008     0.150   0.242843E+24
     0.008     0.157   0.253513E+24
     0.008     0.165   0.259713E+24
     0.008     0.173   0.260918E+24
     0.008     0.181   0.258339E+24
     0.008     0.189   0.254458E+24
     0.008     0.197   0.251981E+24
     0.008     0.205   0.252683E+24
     0.008     0.213   0.256659E+24
     0.008     0.220   0.262343E+24
     0.008     0.228   0.267262E+24
     0.008     0.236   0.269198E+24
     0.008     0.244   0.267224E+24
     0.008     0.252   0.262113E+24
     0.008     0.260   0.255970E+24
     0.008     0.268   0.251235E+24
     0.008     0.276   0.249554E+24
     0.008     0.283   0.251020E+24
     0.008     0.291   0.254144E+24
     0.008     0.299   0.256538E+24
     0.008     0.307   0.256005E+24
     0.008     0.315   0.251523E+24
     0.008     0.323   0.243668E+24
     0.008     0.331   0.234324E+24
     0.008     0.339   0.225810E+24
     0.008     0.346   0.219869E+24
     0.008     0.354   0.216966E+24
     0.008     0.362   0.216199E+24
     0.008     0.370   0.215838E+24
     0.008     0.378   0.214196E+24
     0.008     0.386   0.210441E+24
     0.008     0.394   0.204957E+24
     0.008     0.402   0.199119E+24
     0.008     0.409   0.194603E+24
     0.008     0.417   0.192588E+24
     0.008     0.425   0.193218E+24
     0.008     0.433   0.195570E+24
     0.008     0.441   0.198139E+24
     0.008     0.449   0.199597E+24
     0.008     0.457   0.199453E+24
     0.008     0.465   0.198307E+24
     0.008     0.472   0.197557E+24
     0.008     0.480   0.198700E+24
     0.008     0.488   0.202546E+24
     0.008     0.496   0.208741E+24
     0.008     0.504   0.215821E+24
     0.008     0.512   0.221809E+24
     0.008     0.520   0.225099E+24
     0.008     0.528   0.225205E+24
     0.008     0.535   0.223019E+24
     0.008     0.543   0.220436E+24
     0.008     0.551   0.219498E+24
     0.008     0.559   0.221447E+24
     0.008     0.567   0.226124E+24
     0.008     0.575   0.232012E+24
     0.008     0.583   0.236898E+24
     0.008     0.591   0.238873E+24
     0.008     0.598   0.237213E+24
     0.008     0.606   0.232713E+24
     0.008     0.614   0.227333E+24
     0.008     0.622   0.223298E+24
     0.008     0.630   0.222093E+24
     0.008     0.638   0.223790E+24
     0.008     0.646   0.227029E+24
     0.008     0.654   0.229644E+24
     0.008     0.661   0.229651E+24
     0.008     0.669   0.226129E+24
     0.008     0.677   0.219617E+24
     0.008     0.685   0.211840E+24
     0.008     0.693   0.204936E+24
     0.008     0.701   0.200543E+24
     0.008     0.709   0.199183E+24
     0.008     0.717   0.200191E+24
     0.008     0.724   0.202207E+24
     0.008     0.732   0.203967E+24
     0.008     0.740   0.204996E+24
     0.008     0.748   0.205868E+24
     0.008     0.756   0.207905E+24
     0.008     0.764   0.212441E+24
     0.008     0.772   0.220001E+24
     0.008     0.780   0.229813E+24
     0.008     0.787   0.239889E+24
     0.008     0.795   0.247713E+24
     0.008     0.803   0.251217E+24
     0.008     0.811   0.249644E+24
     0.008     0.819   0.243865E+24
     0.008     0.827   0.236018E+24
     0.008     0.835   0.228609E+24
     0.008     0.843   0.223502E+24
     0.008     0.850   0.221231E+24
     0.008     0.858   0.220937E+24
     0.008     0.866   0.220923E+24
     0.008     0.874   0.219544E+24
     0.008     0.882   0.216026E+24
     0.008     0.890   0.210824E+24
     0.008     0.898   0.205388E+24
     0.008     0.906   0.201442E+24
     0.008     0.913   0.200141E+24
     0.008     0.921   0.201455E+24
     0.008     0.929   0.204040E+24
     0.008     0.937   0.205597E+24
     0.008     0.945   0.203526E+24
     0.008     0.953   0.195568E+24
     0.008     0.961   0.180225E+24
     0.008     0.969   0.156898E+24
     0.008     0.976   0.125843E+24
     0.008     0.984   0.880918E+23
     0.008     0.992   0.453735E+23
     0.008     1.000   0.187920-152
     0.016     0.000   0.601347-153
     0.016     0.008   0.109193E+23
     0.016     0.016   0.232263E+23
     0.016     0.024   0.383062E+23
     0.016     0.031   0.574714E+23
     0.016     0.039   0.817762E+23
     0.016     0.047   0.111712E+24
     0.016     0.055   0.146853E+24
     0.016     0.063   0.185606E+24
     0.016     0.071   0.225262E+24
     0.016     0.079   0.262494E+24
     0.016     0.087   0.294275E+24
     0.016     0.094   0.318928E+24
     0.016     0.102   0.336871E+24
     0.016     0.110   0.350621E+24
     0.016     0.118   0.363902E+24
     0.016     0.126   0.380138E+24
     0.016     0.134   0.400909E+24
     0.016     0.142   0.425108E+24
     0.016     0.150   0.449226E+24
     0.016     0.157   0.468752E+24
     0.016     0.165   0.480133E+24
     0.016     0.173   0.482419E+24
     0.016     0.181   0.477815E+24
     0.016     0.189   0.470836E+24
     0.016     0.197   0.466400E+24
     0.016     0.205   0.467733E+24
     0.016     0.213   0.475014E+24
     0.016     0.220   0.485399E+24
     0.016     0.228   0.494397E+24
     0.016     0.236   0.497982E+24
     0.016     0.244   0.494465E+24
     0.016     0.252   0.485250E+24
     0.016     0.260   0.474155E+24
     0.016     0.268   0.465612E+24
     0.016     0.276   0.462602E+24
     0.016     0.283   0.465294E+24
     0.016     0.291   0.470978E+24
     0.016     0.299   0.475317E+24
     0.016     0.307   0.474319E+24
     0.016     0.315   0.466123E+24
     0.016     0.323   0.451780E+24
     0.016     0.331   0.434712E+24
     0.016     0.339   0.419139E+24
     0.016     0.346   0.408232E+24
     0.016     0.354   0.402844E+24
     0.016     0.362   0.401345E+24
     0.016     0.370   0.400596E+24
     0.016     0.378   0.397539E+24
     0.016     0.386   0.390664E+24
     0.016     0.394   0.380667E+24
     0.016     0.402   0.370039E+24
     0.016     0.409   0.361825E+24
     0.016     0.417   0.358161E+24
     0.016     0.425   0.359305E+24
     0.016     0.433   0.363579E+24
     0.016     0.441   0.368251E+24
     0.016     0.449   0.370904E+24
     0.016     0.457   0.370648E+24
     0.016     0.465   0.368571E+24
     0.016     0.472   0.367212E+24
     0.016     0.480   0.369286E+24
     0.016     0.488   0.376268E+24
     0.016     0.496   0.387512E+24
     0.016     0.504   0.400357E+24
     0.016     0.512   0.411218E+24
     0.016     0.520   0.417178E+24
     0.016     0.528   0.417354E+24
     0.016     0.535   0.413371E+24
     0.016     0.543   0.408670E+24
     0.016     0.551   0.406960E+24
     0.016     0.559   0.410493E+24
     0.016     0.567   0.418982E+24
     0.016     0.575   0.429668E+24
     0.016     0.583   0.438529E+24
     0.016     0.591   0.442101E+24
     0.016     0.598   0.439067E+24
     0.016     0.606   0.430874E+24
     0.016     0.614   0.421080E+24
     0.016     0.622   0.413730E+24
     0.016     0.630   0.411523E+24
     0.016     0.638   0.414590E+24
     0.016     0.646   0.420464E+24
     0.016     0.654   0.425213E+24
     0.016     0.661   0.425230E+24
     0.016     0.669   0.418843E+24
     0.016     0.677   0.407030E+24
     0.016     0.685   0.392924E+24
     0.016     0.693   0.380409E+24
     0.016     0.701   0.372462E+24
     0.016     0.709   0.370031E+24
     0.016     0.717   0.371913E+24
     0.016     0.724   0.375643E+24
     0.016     0.732   0.378924E+24
     0.016     0.740   0.380893E+24
     0.016     0.748   0.382594E+24
     0.016     0.756   0.386422E+24
     0.016     0.764   0.394792E+24
     0.016     0.772   0.408654E+24
     0.016     0.780   0.426593E+24
     0.016     0.787   0.444998E+24
     0.016     0.795   0.459288E+24
     0.016     0.803   0.465708E+24
     0.016     0.811   0.462881E+24
     0.016     0.819   0.452390E+24
     0.016     0.827   0.438118E+24
     0.016     0.835   0.424624E+24
     0.016     0.843   0.415293E+24
     0.016     0.850   0.411102E+24
     0.016     0.858   0.410495E+24
     0.016     0.866   0.410390E+24
     0.016     0.874   0.407801E+24
     0.016     0.882   0.401320E+24
     0.016     0.890   0.391772E+24
     0.016     0.898   0.381783E+24
     0.016     0.906   0.374480E+24
     0.016     0.913   0.371949E+24
     0.016     0.921   0.374125E+24
     0.016     0.929   0.378547E+24
     0.016     0.937   0.381020E+24
     0.016     0.945   0.376792E+24
     0.016     0.953   0.361739E+24
     0.016     0.961   0.333121E+24
     0.016     0.969   0.289842E+24
     0.016     0.976   0.232377E+24
     0.016     0.984   0.162619E+24
     0.016     0.992   0.837453E+23
     0.016     1.000   0.603687-153
     0.024     0.000   0.505231E-37
     0.024     0.008   0.148754E+23
     0.024     0.016   0.315600E+23
     0.024     0.024   0.518540E+23
     0.024     0.031   0.774548E+23
     0.024     0.039   0.109715E+24
     0.024     0.047   0.149252E+24
     0.024     0.055   0.195495E+24
     0.024     0.063   0.246368E+24
     0.024     0.071   0.298367E+24
     0.024     0.079   0.347204E+24
     0.024     0.087   0.388979E+24
     0.024     0.094   0.421536E+24
     0.024     0.102   0.445405E+24
     0.024     0.110   0.463809E+24
     0.024     0.118   0.481518E+24
     0.024     0.126   0.502913E+24
     0.024     0.134   0.530022E+24
     0.024     0.142   0.561433E+24
     0.024     0.150   0.592663E+24
     0.024     0.157   0.617952E+24
     0.024     0.165   0.632767E+24
     0.024     0.173   0.635906E+24
     0.024     0.181   0.630201E+24
     0.024     0.189   0.621433E+24
     0.024     0.197   0.615902E+24
     0.024     0.205   0.617741E+24
     0.024     0.213   0.627187E+24
     0.024     0.220   0.640605E+24
     0.024     0.228   0.652257E+24
     0.024     0.236   0.656997E+24
     0.024     0.244   0.652660E+24
     0.024     0.252   0.641038E+24
     0.024     0.260   0.627004E+24
     0.024     0.268   0.616212E+24
     0.024     0.276   0.612469E+24
     0.024     0.283   0.615982E+24
     0.024     0.291   0.623279E+24
     0.024     0.299   0.628810E+24
     0.024     0.307   0.627467E+24
     0.024     0.315   0.616871E+24
     0.024     0.323   0.598366E+24
     0.024     0.331   0.576335E+24
     0.024     0.339   0.556182E+24
     0.024     0.346   0.541980E+24
     0.024     0.354   0.534834E+24
     0.024     0.362   0.532681E+24
     0.024     0.370   0.531519E+24
     0.024     0.378   0.527447E+24
     0.024     0.386   0.518537E+24
     0.024     0.394   0.505674E+24
     0.024     0.402   0.492039E+24
     0.024     0.409   0.481513E+24
     0.024     0.417   0.476821E+24
     0.024     0.425   0.478286E+24
     0.024     0.433   0.483758E+24
     0.024     0.441   0.489741E+24
     0.024     0.449   0.493145E+24
     0.024     0.457   0.492827E+24
     0.024     0.465   0.490179E+24
     0.024     0.472   0.488443E+24
     0.024     0.480   0.491089E+24
     0.024     0.488   0.499998E+24
     0.024     0.496   0.514346E+24
     0.024     0.504   0.530731E+24
     0.024     0.512   0.544574E+24
     0.024     0.520   0.552150E+24
     0.024     0.528   0.552335E+24
     0.024     0.535   0.547209E+24
     0.024     0.543   0.541173E+24
     0.024     0.551   0.538966E+24
     0.024     0.559   0.543465E+24
     0.024     0.567   0.554300E+24
     0.024     0.575   0.567938E+24
     0.024     0.583   0.579237E+24
     0.024     0.591   0.583767E+24
     0.024     0.598   0.579846E+24
     0.024     0.606   0.569324E+24
     0.024     0.614   0.556753E+24
     0.024     0.622   0.547310E+24
     0.024     0.630   0.544446E+24
     0.024     0.638   0.548337E+24
     0.024     0.646   0.555829E+24
     0.024     0.654   0.561900E+24
     0.024     0.661   0.561937E+24
     0.024     0.669   0.553802E+24
     0.024     0.677   0.538741E+24
     0.024     0.685   0.520760E+24
     0.024     0.693   0.504823E+24
     0.024     0.701   0.494742E+24
     0.024     0.709   0.491732E+24
     0.024     0.717   0.494262E+24
     0.024     0.724   0.499187E+24
     0.024     0.732   0.503576E+24
     0.024     0.740   0.506324E+24
     0.024     0.748   0.508760E+24
     0.024     0.756   0.513940E+24
     0.024     0.764   0.524934E+24
     0.024     0.772   0.542942E+24
     0.024     0.780   0.566141E+24
     0.024     0.787   0.589897E+24
     0.024     0.795   0.608346E+24
     0.024     0.803   0.616679E+24
     0.024     0.811   0.613132E+24
     0.024     0.819   0.599732E+24
     0.024     0.827   0.581449E+24
     0.024     0.835   0.564115E+24
     0.024     0.843   0.552070E+24
     0.024     0.850   0.546569E+24
     0.024     0.858   0.545631E+24
     0.024     0.866   0.545321E+24
     0.024     0.874   0.541822E+24
     0.024     0.882   0.533331E+24
     0.024     0.890   0.520896E+24
     0.024     0.898   0.507862E+24
     0.024     0.906   0.498212E+24
     0.024     0.913   0.494594E+24
     0.024     0.921   0.496890E+24
     0.024     0.929   0.501918E+24
     0.024     0.937   0.504263E+24
     0.024     0.945   0.497797E+24
     0.024     0.953   0.477191E+24
     0.024     0.961   0.438904E+24
     0.024     0.969   0.381519E+24
     0.024     0.976   0.305659E+24
     0.024     0.984   0.213794E+24
     0.024     0.992   0.110066E+24
     0.024     1.000   0.369784E-56
     0.031     0.000   0.655491-259
     0.031     0.008   0.173905E+23
     0.031     0.016   0.367679E+23
     0.031     0.024   0.601013E+23
     0.031     0.031   0.892332E+23
     0.031     0.039   0.125616E+24
     0.031     0.047   0.169890E+24
     0.031     0.055   0.221402E+24
     0.031     0.063   0.277879E+24
     0.031     0.071   0.335512E+24
     0.031     0.079   0.389661E+24
     0.031     0.087   0.436121E+24
     0.031     0.094   0.472565E+24
     0.031     0.102   0.499555E+24
     0.031     0.110   0.520538E+24
     0.031     0.118   0.540619E+24
     0.031     0.126   0.564488E+24
     0.031     0.134   0.594320E+24
     0.031     0.142   0.628613E+24
     0.031     0.150   0.662589E+24
     0.031     0.157   0.690109E+24
     0.031     0.165   0.706351E+24
     0.031     0.173   0.710048E+24
     0.031     0.181   0.704244E+24
     0.031     0.189   0.695133E+24
     0.031     0.197   0.689459E+24
     0.031     0.205   0.691646E+24
     0.031     0.213   0.701958E+24
     0.031     0.220   0.716524E+24
     0.031     0.228   0.729217E+24
     0.031     0.236   0.734544E+24
     0.031     0.244   0.730186E+24
     0.031     0.252   0.718047E+24
     0.031     0.260   0.703318E+24
     0.031     0.268   0.692023E+24
     0.031     0.276   0.688211E+24
     0.031     0.283   0.692092E+24
     0.031     0.291   0.699946E+24
     0.031     0.299   0.705837E+24
     0.031     0.307   0.704307E+24
     0.031     0.315   0.692810E+24
     0.031     0.323   0.672788E+24
     0.031     0.331   0.648929E+24
     0.031     0.339   0.627026E+24
     0.031     0.346   0.611450E+24
     0.031     0.354   0.603412E+24
     0.031     0.362   0.600736E+24
     0.031     0.370   0.599171E+24
     0.031     0.378   0.594566E+24
     0.031     0.386   0.584864E+24
     0.031     0.394   0.571005E+24
     0.031     0.402   0.556375E+24
     0.031     0.409   0.545105E+24
     0.031     0.417   0.540091E+24
     0.031     0.425   0.541666E+24
     0.031     0.433   0.547527E+24
     0.031     0.441   0.553934E+24
     0.031     0.449   0.557584E+24
     0.031     0.457   0.557256E+24
     0.031     0.465   0.554430E+24
     0.031     0.472   0.552566E+24
     0.031     0.480   0.555365E+24
     0.031     0.488   0.564835E+24
     0.031     0.496   0.580093E+24
     0.031     0.504   0.597513E+24
     0.031     0.512   0.612209E+24
     0.031     0.520   0.620212E+24
     0.031     0.528   0.620330E+24
     0.031     0.535   0.614789E+24
     0.031     0.543   0.608290E+24
     0.031     0.551   0.605889E+24
     0.031     0.559   0.610654E+24
     0.031     0.567   0.622184E+24
     0.031     0.575   0.636701E+24
     0.031     0.583   0.648712E+24
     0.031     0.591   0.653486E+24
     0.031     0.598   0.649226E+24
     0.031     0.606   0.637913E+24
     0.031     0.614   0.624409E+24
     0.031     0.622   0.614250E+24
     0.031     0.630   0.611129E+24
     0.031     0.638   0.615238E+24
     0.031     0.646   0.623218E+24
     0.031     0.654   0.629708E+24
     0.031     0.661   0.629784E+24
     0.031     0.669   0.621162E+24
     0.031     0.677   0.605166E+24
     0.031     0.685   0.586072E+24
     0.031     0.693   0.569180E+24
     0.031     0.701   0.558564E+24
     0.031     0.709   0.555529E+24
     0.031     0.717   0.558450E+24
     0.031     0.724   0.563978E+24
     0.031     0.732   0.568987E+24
     0.031     0.740   0.572299E+24
     0.031     0.748   0.575325E+24
     0.031     0.756   0.581312E+24
     0.031     0.764   0.593520E+24
     0.031     0.772   0.613205E+24
     0.031     0.780   0.638395E+24
     0.031     0.787   0.664122E+24
     0.031     0.795   0.684106E+24
     0.031     0.803   0.693205E+24
     0.031     0.811   0.689531E+24
     0.031     0.819   0.675250E+24
     0.031     0.827   0.655675E+24
     0.031     0.835   0.637045E+24
     0.031     0.843   0.624006E+24
     0.031     0.850   0.617912E+24
     0.031     0.858   0.616657E+24
     0.031     0.866   0.616047E+24
     0.031     0.874   0.612007E+24
     0.031     0.882   0.602607E+24
     0.031     0.890   0.588952E+24
     0.031     0.898   0.574598E+24
     0.031     0.906   0.563772E+24
     0.031     0.913   0.559266E+24
     0.031     0.921   0.560906E+24
     0.031     0.929   0.565231E+24
     0.031     0.937   0.566379E+24
     0.031     0.945   0.557721E+24
     0.031     0.953   0.533481E+24
     0.031     0.961   0.489815E+24
     0.031     0.969   0.425189E+24
     0.031     0.976   0.340292E+24
     0.031     0.984   0.237844E+24
     0.031     0.992   0.122394E+24
     0.031     1.000   0.578548E-05
     0.039     0.000   0.335749E-05
     0.039     0.008   0.184573E+23
     0.039     0.016   0.388582E+23
     0.039     0.024   0.631186E+23
     0.039     0.031   0.930135E+23
     0.039     0.039   0.129920E+24
     0.039     0.047   0.174418E+24
     0.039     0.055   0.225835E+24
     0.039     0.063   0.281951E+24
     0.039     0.071   0.339090E+24
     0.039     0.079   0.392805E+24
     0.039     0.087   0.439072E+24
     0.039     0.094   0.475669E+24
     0.039     0.102   0.503117E+24
     0.039     0.110   0.524670E+24
     0.039     0.118   0.545155E+24
     0.039     0.126   0.569005E+24
     0.039     0.134   0.598280E+24
     0.039     0.142   0.631580E+24
     0.039     0.150   0.664415E+24
     0.039     0.157   0.691022E+24
     0.039     0.165   0.706877E+24
     0.039     0.173   0.710815E+24
     0.039     0.181   0.705733E+24
     0.039     0.189   0.697488E+24
     0.039     0.197   0.692458E+24
     0.039     0.205   0.694828E+24
     0.039     0.213   0.704861E+24
     0.039     0.220   0.718918E+24
     0.039     0.228   0.731234E+24
     0.039     0.236   0.736630E+24
     0.039     0.244   0.732916E+24
     0.039     0.252   0.721871E+24
     0.039     0.260   0.708367E+24
     0.039     0.268   0.698060E+24
     0.039     0.276   0.694746E+24
     0.039     0.283   0.698601E+24
     0.039     0.291   0.706107E+24
     0.039     0.299   0.711659E+24
     0.039     0.307   0.710106E+24
     0.039     0.315   0.699047E+24
     0.039     0.323   0.679844E+24
     0.039     0.331   0.656932E+24
     0.039     0.339   0.635792E+24
     0.039     0.346   0.620577E+24
     0.039     0.354   0.612469E+24
     0.039     0.362   0.609453E+24
     0.039     0.370   0.607555E+24
     0.039     0.378   0.602881E+24
     0.039     0.386   0.593500E+24
     0.039     0.394   0.580292E+24
     0.039     0.402   0.566429E+24
     0.039     0.409   0.555784E+24
     0.039     0.417   0.551069E+24
     0.039     0.425   0.552578E+24
     0.039     0.433   0.558131E+24
     0.039     0.441   0.564195E+24
     0.039     0.449   0.567653E+24
     0.039     0.457   0.567348E+24
     0.039     0.465   0.564672E+24
     0.039     0.472   0.562881E+24
     0.039     0.480   0.565457E+24
     0.039     0.488   0.574290E+24
     0.039     0.496   0.588550E+24
     0.039     0.504   0.604828E+24
     0.039     0.512   0.618528E+24
     0.039     0.520   0.625924E+24
     0.039     0.528   0.625903E+24
     0.039     0.535   0.620568E+24
     0.039     0.543   0.614350E+24
     0.039     0.551   0.612009E+24
     0.039     0.559   0.616429E+24
     0.039     0.567   0.627223E+24
     0.039     0.575   0.640825E+24
     0.039     0.583   0.652057E+24
     0.039     0.591   0.656459E+24
     0.039     0.598   0.652342E+24
     0.039     0.606   0.641574E+24
     0.039     0.614   0.628743E+24
     0.039     0.622   0.619073E+24
     0.039     0.630   0.616051E+24
     0.039     0.638   0.619870E+24
     0.039     0.646   0.627374E+24
     0.039     0.654   0.633516E+24
     0.039     0.661   0.633660E+24
     0.039     0.669   0.625649E+24
     0.039     0.677   0.610727E+24
     0.039     0.685   0.592917E+24
     0.039     0.693   0.577210E+24
     0.039     0.701   0.567446E+24
     0.039     0.709   0.564865E+24
     0.039     0.717   0.567945E+24
     0.039     0.724   0.573539E+24
     0.039     0.732   0.578712E+24
     0.039     0.740   0.582348E+24
     0.039     0.748   0.585771E+24
     0.039     0.756   0.592020E+24
     0.039     0.764   0.604141E+24
     0.039     0.772   0.623285E+24
     0.039     0.780   0.647566E+24
     0.039     0.787   0.672276E+24
     0.039     0.795   0.691480E+24
     0.039     0.803   0.700321E+24
     0.039     0.811   0.697017E+24
     0.039     0.819   0.683611E+24
     0.039     0.827   0.665115E+24
     0.039     0.835   0.647419E+24
     0.039     0.843   0.634916E+24
     0.039     0.850   0.628895E+24
     0.039     0.858   0.627388E+24
     0.039     0.866   0.626447E+24
     0.039     0.874   0.622237E+24
     0.039     0.882   0.612927E+24
     0.039     0.890   0.599546E+24
     0.039     0.898   0.585416E+24
     0.039     0.906   0.574485E+24
     0.039     0.913   0.569336E+24
     0.039     0.921   0.569741E+24
     0.039     0.929   0.572354E+24
     0.039     0.937   0.571549E+24
     0.039     0.945   0.560964E+24
     0.039     0.953   0.535052E+24
     0.039     0.961   0.490110E+24
     0.039     0.969   0.424662E+24
     0.039     0.976   0.339398E+24
     0.039     0.984   0.236985E+24
     0.039     0.992   0.121880E+24
     0.039     1.000   0.579258E-05
     0.047     0.000   0.336161E-05
     0.047     0.008   0.182749E+23
     0.047     0.016   0.382895E+23
     0.047     0.024   0.617469E+23
     0.047     0.031   0.902052E+23
     0.047     0.039   0.124849E+24
     0.047     0.047   0.166143E+24
     0.047     0.055   0.213449E+24
     0.047     0.063   0.264782E+24
     0.047     0.071   0.316908E+24
     0.047     0.079   0.365938E+24
     0.047     0.087   0.408375E+24
     0.047     0.094   0.442282E+24
     0.047     0.102   0.468093E+24
     0.047     0.110   0.488590E+24
     0.047     0.118   0.507908E+24
     0.047     0.126   0.529846E+24
     0.047     0.134   0.556180E+24
     0.047     0.142   0.585731E+24
     0.047     0.150   0.614690E+24
     0.047     0.157   0.638165E+24
     0.047     0.165   0.652327E+24
     0.047     0.173   0.656216E+24
     0.047     0.181   0.652333E+24
     0.047     0.189   0.645706E+24
     0.047     0.197   0.641798E+24
     0.047     0.205   0.644200E+24
     0.047     0.213   0.653152E+24
     0.047     0.220   0.665563E+24
     0.047     0.228   0.676519E+24
     0.047     0.236   0.681602E+24
     0.047     0.244   0.678934E+24
     0.047     0.252   0.670016E+24
     0.047     0.260   0.658982E+24
     0.047     0.268   0.650629E+24
     0.047     0.276   0.648169E+24
     0.047     0.283   0.651732E+24
     0.047     0.291   0.658295E+24
     0.047     0.299   0.663063E+24
     0.047     0.307   0.661632E+24
     0.047     0.315   0.651953E+24
     0.047     0.323   0.635193E+24
     0.047     0.331   0.615154E+24
     0.047     0.339   0.596542E+24
     0.047     0.346   0.582941E+24
     0.047     0.354   0.575405E+24
     0.047     0.362   0.572262E+24
     0.047     0.370   0.570156E+24
     0.047     0.378   0.565790E+24
     0.047     0.386   0.557522E+24
     0.047     0.394   0.546095E+24
     0.047     0.402   0.534197E+24
     0.047     0.409   0.525108E+24
     0.047     0.417   0.521116E+24
     0.047     0.425   0.522451E+24
     0.047     0.433   0.527236E+24
     0.047     0.441   0.532446E+24
     0.047     0.449   0.535412E+24
     0.047     0.457   0.535144E+24
     0.047     0.465   0.532822E+24
     0.047     0.472   0.531219E+24
     0.047     0.480   0.533304E+24
     0.047     0.488   0.540690E+24