Title="Temperature Data"
Variables="X","Y","T"
 
Zone I=    64, J=    64, F=POINT
     0.000     0.000   0.693777-309
     0.000     0.016   0.693777-309
     0.000     0.032    0.00000    
     0.000     0.048    0.00000    
     0.000     0.063   0.601347-153
     0.000     0.079   0.604274-153
     0.000     0.095   0.466724E-61
     0.000     0.111   0.108569E-41
     0.000     0.127   0.156156-258
     0.000     0.143   0.290700E-32
     0.000     0.159   0.696312E-76
     0.000     0.175   0.125766E-75
     0.000     0.190   0.232067E+26
     0.000     0.206   0.601347-153
     0.000     0.222   0.604274-153
     0.000     0.238   0.231778E-51
     0.000     0.254   0.142627E-70
     0.000     0.270   0.204936-258
     0.000     0.286   0.290700E-32
     0.000     0.302   0.696312E-76
     0.000     0.317   0.125766E-75
     0.000     0.333   0.268287E+26
     0.000     0.349   0.601347-153
     0.000     0.365   0.604274-153
     0.000     0.381   0.113000E-41
     0.000     0.397   0.136922E-70
     0.000     0.413   0.172448-258
     0.000     0.429   0.290700E-32
     0.000     0.444   0.696312E-76
     0.000     0.460   0.125766E-75
     0.000     0.476   0.268240E+26
     0.000     0.492   0.601347-153
     0.000     0.508   0.604274-153
     0.000     0.524   0.350593E-32
     0.000     0.540   0.917768E-71
     0.000     0.556   0.148090-258
     0.000     0.571   0.290700E-32
     0.000     0.587   0.696312E-76
     0.000     0.603   0.125766E-75
     0.000     0.619   0.196036E+26
     0.000     0.635   0.601347-153
     0.000     0.651   0.604274-153
     0.000     0.667   0.191756E-75
     0.000     0.683   0.466724E-61
     0.000     0.698   0.148090-258
     0.000     0.714   0.290700E-32
     0.000     0.730   0.696312E-76
     0.000     0.746   0.125766E-75
     0.000     0.762   0.268334E+26
     0.000     0.778   0.601347-153
     0.000     0.794   0.604274-153
     0.000     0.810   0.934862E-66
     0.000     0.825   0.117687E-46
     0.000     0.841   0.188708-258
     0.000     0.857   0.290700E-32
     0.000     0.873   0.696312E-76
     0.000     0.889   0.125766E-75
     0.000     0.905   0.195987E+26
     0.000     0.921   0.601347-153
     0.000     0.937   0.604274-153
     0.000     0.952   0.290066E-56
     0.000     0.968   0.117687E-46
     0.000     0.984   0.188708-258
     0.000     1.000   0.290700E-32
     0.016     0.000   0.696312E-76
     0.016     0.016   0.828964E+18
     0.016     0.032   0.383937E+16
     0.016     0.048   0.970126E+13
     0.016     0.063   0.176095E+11
     0.016     0.079   0.260415E+08
     0.016     0.095   0.130304E+09
     0.016     0.111   0.732693E+11
     0.016     0.127   0.350058E+14
     0.016     0.143   0.139048E+17
     0.016     0.159   0.449254E+19
     0.016     0.175   0.115113E+22
     0.016     0.190   0.218634E+24
     0.016     0.206   0.115113E+22
     0.016     0.222   0.449254E+19
     0.016     0.238   0.139048E+17
     0.016     0.254   0.350952E+14
     0.016     0.270   0.423342E+14
     0.016     0.286   0.164148E+17
     0.016     0.302   0.508156E+19
     0.016     0.317   0.121930E+22
     0.016     0.333   0.221871E+24
     0.016     0.349   0.121930E+22
     0.016     0.365   0.508156E+19
     0.016     0.381   0.164148E+17
     0.016     0.397   0.423302E+14
     0.016     0.413   0.332587E+14
     0.016     0.429   0.132631E+17
     0.016     0.444   0.434622E+19
     0.016     0.460   0.114598E+22
     0.016     0.476   0.229530E+24
     0.016     0.492   0.114598E+22
     0.016     0.508   0.434622E+19
     0.016     0.524   0.132631E+17
     0.016     0.540   0.332426E+14
     0.016     0.556   0.351280E+14
     0.016     0.571   0.139483E+17
     0.016     0.587   0.451276E+19
     0.016     0.603   0.115076E+22
     0.016     0.619   0.211325E+24
     0.016     0.635   0.115076E+22
     0.016     0.651   0.451276E+19
     0.016     0.667   0.139483E+17
     0.016     0.683   0.351651E+14
     0.016     0.698   0.503132E+14
     0.016     0.714   0.195206E+17
     0.016     0.730   0.603728E+19
     0.016     0.746   0.143564E+22
     0.016     0.762   0.250592E+24
     0.016     0.778   0.143564E+22
     0.016     0.794   0.603728E+19
     0.016     0.810   0.195206E+17
     0.016     0.825   0.502418E+14
     0.016     0.841   0.188910E+13
     0.016     0.857   0.142726E+16
     0.016     0.873   0.919073E+18
     0.016     0.889   0.439777E+21
     0.016     0.905   0.136049E+24
     0.016     0.921   0.439777E+21
     0.016     0.937   0.919074E+18
     0.016     0.952   0.170386E+16
     0.016     0.968   0.535446E+17
     0.016     0.984   0.548795E+19
     0.016     1.000   0.696312E-76
     0.032     0.000   0.125766E-75
     0.032     0.016   0.408967E+21
     0.032     0.032   0.165793E+19
     0.032     0.048   0.383938E+16
     0.032     0.063   0.646755E+13
     0.032     0.079   0.880484E+10
     0.032     0.095   0.117406E+08
     0.032     0.111   0.781625E+09
     0.032     0.127   0.366341E+12
     0.032     0.143   0.140021E+15
     0.032     0.159   0.417140E+17
     0.032     0.175   0.898508E+19
     0.032     0.190   0.115116E+22
     0.032     0.206   0.898508E+19
     0.032     0.222   0.417140E+17
     0.032     0.238   0.140021E+15
     0.032     0.254   0.367300E+12
     0.032     0.270   0.447913E+12
     0.032     0.286   0.169042E+15
     0.032     0.302   0.492441E+17
     0.032     0.317   0.101631E+20
     0.032     0.333   0.121933E+22
     0.032     0.349   0.101631E+20
     0.032     0.365   0.492441E+17
     0.032     0.381   0.169042E+15
     0.032     0.397   0.447869E+12
     0.032     0.413   0.347011E+12
     0.032     0.429   0.132675E+15
     0.032     0.444   0.397889E+17
     0.032     0.460   0.869244E+19
     0.032     0.476   0.114601E+22
     0.032     0.492   0.869244E+19
     0.032     0.508   0.397889E+17
     0.032     0.524   0.132675E+15
     0.032     0.540   0.346833E+12
     0.032     0.556   0.367269E+12
     0.032     0.571   0.140233E+15
     0.032     0.587   0.418444E+17
     0.032     0.603   0.902553E+19
     0.032     0.619   0.115079E+22
     0.032     0.635   0.902553E+19
     0.032     0.651   0.418444E+17
     0.032     0.667   0.140233E+15
     0.032     0.683   0.367671E+12
     0.032     0.698   0.532152E+12
     0.032     0.714   0.200957E+15
     0.032     0.730   0.585614E+17
     0.032     0.746   0.120746E+20
     0.032     0.762   0.143568E+22
     0.032     0.778   0.120746E+20
     0.032     0.794   0.585614E+17
     0.032     0.810   0.200957E+15
     0.032     0.825   0.531381E+12
     0.032     0.841   0.105956E+11
     0.032     0.857   0.713127E+13
     0.032     0.873   0.428177E+16
     0.032     0.889   0.183815E+19
     0.032     0.905   0.439780E+21
     0.032     0.921   0.183815E+19
     0.032     0.937   0.446617E+16
     0.032     0.952   0.535509E+17
     0.032     0.968   0.109760E+20
     0.032     0.984   0.130022E+22
     0.032     1.000   0.125766E-75
     0.048     0.000   0.232162E+26
     0.048     0.016   0.136334E+24
     0.048     0.032   0.408969E+21
     0.048     0.048   0.828974E+18
     0.048     0.063   0.127981E+16
     0.048     0.079   0.161691E+13
     0.048     0.095   0.176101E+10
     0.048     0.111   0.593528E+07
     0.048     0.127   0.195403E+10
     0.048     0.143   0.732679E+12
     0.048     0.159   0.210032E+15
     0.048     0.175   0.417144E+17
     0.048     0.190   0.449272E+19
     0.048     0.206   0.417144E+17
     0.048     0.222   0.210032E+15
     0.048     0.238   0.732679E+12
     0.048     0.254   0.195921E+10
     0.048     0.270   0.240173E+10
     0.048     0.286   0.894260E+12
     0.048     0.302   0.253563E+15
     0.048     0.317   0.492445E+17
     0.048     0.333   0.508177E+19
     0.048     0.349   0.492445E+17
     0.048     0.365   0.253563E+15
     0.048     0.381   0.894260E+12
     0.048     0.397   0.240149E+10
     0.048     0.413   0.184831E+10
     0.048     0.429   0.692101E+12
     0.048     0.444   0.199013E+15
     0.048     0.460   0.397892E+17
     0.048     0.476   0.434638E+19
     0.048     0.492   0.397892E+17
     0.048     0.508   0.199013E+15
     0.048     0.524   0.692101E+12
     0.048     0.540   0.184734E+10
     0.048     0.556   0.195797E+10
     0.048     0.571   0.733061E+12
     0.048     0.587   0.210350E+15
     0.048     0.603   0.418448E+17
     0.048     0.619   0.451294E+19
     0.048     0.635   0.418448E+17
     0.048     0.651   0.210350E+15
     0.048     0.667   0.733061E+12
     0.048     0.683   0.196015E+10
     0.048     0.698   0.285283E+10
     0.048     0.714   0.106274E+13
     0.048     0.730   0.301436E+15
     0.048     0.746   0.585619E+17
     0.048     0.762   0.603753E+19
     0.048     0.778   0.585619E+17
     0.048     0.794   0.301436E+15
     0.048     0.810   0.106274E+13
     0.048     0.825   0.284865E+10
     0.048     0.841   0.328159E+08
     0.048     0.857   0.189122E+11
     0.048     0.873   0.106969E+14
     0.048     0.889   0.428178E+16
     0.048     0.905   0.919082E+18
     0.048     0.921   0.432788E+16
     0.048     0.937   0.178595E+17
     0.048     0.952   0.548823E+19
     0.048     0.968   0.130026E+22
     0.048     0.984   0.232689E+24
     0.048     1.000   0.280471E+26
     0.063     0.000   0.601347-153
     0.063     0.016   0.408967E+21
     0.063     0.032   0.165793E+19
     0.063     0.048   0.383938E+16
     0.063     0.063   0.646755E+13
     0.063     0.079   0.880484E+10
     0.063     0.095   0.103365E+08
     0.063     0.111    26164.8    
     0.063     0.127   0.702084E+07
     0.063     0.143   0.260536E+10
     0.063     0.159   0.732682E+12
     0.063     0.175   0.140023E+15
     0.063     0.190   0.139054E+17
     0.063     0.206   0.140023E+15
     0.063     0.222   0.732682E+12
     0.063     0.238   0.260536E+10
     0.063     0.254   0.703958E+07
     0.063     0.270   0.865144E+07
     0.063     0.286   0.319669E+10
     0.063     0.302   0.894264E+12
     0.063     0.317   0.169044E+15
     0.063     0.333   0.164157E+17
     0.063     0.349   0.169044E+15
     0.063     0.365   0.894264E+12
     0.063     0.381   0.319669E+10
     0.063     0.397   0.865056E+07
     0.063     0.413   0.663652E+07
     0.063     0.429   0.245750E+10
     0.063     0.444   0.692104E+12
     0.063     0.460   0.132677E+15
     0.063     0.476   0.132637E+17
     0.063     0.492   0.132677E+15
     0.063     0.508   0.692104E+12
     0.063     0.524   0.245750E+10
     0.063     0.540   0.663298E+07
     0.063     0.556   0.703313E+07
     0.063     0.571   0.260533E+10
     0.063     0.587   0.733063E+12
     0.063     0.603   0.140235E+15
     0.063     0.619   0.139489E+17
     0.063     0.635   0.140235E+15
     0.063     0.651   0.733063E+12
     0.063     0.667   0.260533E+10
     0.063     0.683   0.704106E+07
     0.063     0.698   0.102752E+08
     0.063     0.714   0.379815E+10
     0.063     0.730   0.106274E+13
     0.063     0.746   0.200960E+15
     0.063     0.762   0.195216E+17
     0.063     0.778   0.200960E+15
     0.063     0.794   0.106274E+13
     0.063     0.810   0.379815E+10
     0.063     0.825   0.102600E+08
     0.063     0.841    75886.4    
     0.063     0.857   0.355466E+08
     0.063     0.873   0.189122E+11
     0.063     0.889   0.713129E+13
     0.063     0.905   0.142728E+16
     0.063     0.921   0.761980E+13
     0.063     0.937   0.184419E+15
     0.063     0.952   0.535438E+17
     0.063     0.968   0.109760E+20
     0.063     0.984   0.130022E+22
     0.063     1.000   0.601347-153
     0.079     0.000   0.603687-153
     0.079     0.016   0.828966E+18
     0.079     0.032   0.383938E+16
     0.079     0.048   0.970128E+13
     0.079     0.063   0.176096E+11
     0.079     0.079   0.258409E+08
     0.079     0.095    32803.7    
     0.079     0.111    78.9629    
     0.079     0.127    19037.7    
     0.079     0.143   0.702084E+07
     0.079     0.159   0.195404E+10
     0.079     0.175   0.366347E+12
     0.079     0.190   0.350076E+14
     0.079     0.206   0.366347E+12
     0.079     0.222   0.195404E+10
     0.079     0.238   0.702084E+07
     0.079     0.254    19088.8    
     0.079     0.270    23488.7    
     0.079     0.286   0.863622E+07
     0.079     0.302   0.239753E+10
     0.079     0.317   0.447139E+12
     0.079     0.333   0.422632E+14
     0.079     0.349   0.447139E+12
     0.079     0.365   0.239753E+10
     0.079     0.381   0.863622E+07
     0.079     0.397    23486.3    
     0.079     0.413    17989.6    
     0.079     0.429   0.661777E+07
     0.079     0.444   0.184314E+10
     0.079     0.460   0.346057E+12
     0.079     0.476   0.331710E+14
     0.079     0.492   0.346057E+12
     0.079     0.508   0.184314E+10
     0.079     0.524   0.661777E+07
     0.079     0.540    17980.0    
     0.079     0.556    19068.3    
     0.079     0.571   0.701879E+07
     0.079     0.587   0.195401E+10
     0.079     0.603   0.366537E+12
     0.079     0.619   0.350606E+14
     0.079     0.635   0.366537E+12
     0.079     0.651   0.195401E+10
     0.079     0.667   0.701879E+07
     0.079     0.683    19090.0    
     0.079     0.698    27895.3    
     0.079     0.714   0.102600E+08
     0.079     0.730   0.284863E+10
     0.079     0.746   0.531378E+12
     0.079     0.762   0.502426E+14
     0.079     0.778   0.531378E+12
     0.079     0.794   0.284863E+10
     0.079     0.810   0.102600E+08
     0.079     0.825    27854.0    
     0.079     0.841    147.639    
     0.079     0.857    53603.4    
     0.079     0.873   0.266600E+08
     0.079     0.889   0.945615E+10
     0.079     0.905   0.178285E+13
     0.079     0.921   0.120774E+11
     0.079     0.937   0.977030E+12
     0.079     0.952   0.276597E+15
     0.079     0.968   0.535433E+17
     0.079     0.984   0.548800E+19
     0.079     1.000   0.603687-153
     0.095     0.000   0.120054E-70
     0.095     0.016   0.127979E+16
     0.095     0.032   0.646752E+13
     0.095     0.048   0.176096E+11
     0.095     0.063   0.344545E+08
     0.095     0.079    54672.6    
     0.095     0.095    74.9856    
     0.095     0.111   0.182461    
     0.095     0.127    41.4702    
     0.095     0.143    15230.2    
     0.095     0.159   0.421253E+07
     0.095     0.175   0.781627E+09
     0.095     0.190   0.732733E+11
     0.095     0.206   0.781627E+09
     0.095     0.222   0.421253E+07
     0.095     0.238    15230.2    
     0.095     0.254    41.5818    
     0.095     0.270    51.1983    
     0.095     0.286    18757.8    
     0.095     0.302   0.518177E+07
     0.095     0.317   0.959029E+09
     0.095     0.333   0.894327E+11
     0.095     0.349   0.959029E+09
     0.095     0.365   0.518177E+07
     0.095     0.381    18757.8    
     0.095     0.397    51.1931    
     0.095     0.413    39.1807    
     0.095     0.429    14350.9    
     0.095     0.444   0.397069E+07
     0.095     0.460   0.737267E+09
     0.095     0.476   0.692152E+11
     0.095     0.492   0.737267E+09
     0.095     0.508   0.397069E+07
     0.095     0.524    14350.9    
     0.095     0.540    39.1596    
     0.095     0.556    41.5338    
     0.095     0.571    15223.5    
     0.095     0.587   0.421130E+07
     0.095     0.603   0.781617E+09
     0.095     0.619   0.733115E+11
     0.095     0.635   0.781617E+09
     0.095     0.651   0.421130E+07
     0.095     0.667    15223.5    
     0.095     0.683    41.5811    
     0.095     0.698    60.8012    
     0.095     0.714    22283.2    
     0.095     0.730   0.615602E+07
     0.095     0.746   0.113947E+10
     0.095     0.762   0.106282E+12
     0.095     0.778   0.113947E+10
     0.095     0.794   0.615602E+07
     0.095     0.810    22283.2    
     0.095     0.825    60.7108    
     0.095     0.841   0.253908    
     0.095     0.857    69.5428    
     0.095     0.873    32162.1    
     0.095     0.889   0.106641E+08
     0.095     0.905   0.189128E+10
     0.095     0.921   0.201098E+08
     0.095     0.937   0.349507E+10
     0.095     0.952   0.976999E+12
     0.095     0.968   0.184398E+15
     0.095     0.984   0.178479E+17
     0.095     1.000   0.564434E-61
     0.111     0.000   0.114350E-70
     0.111     0.016   0.161689E+13
     0.111     0.032   0.880480E+10
     0.111     0.048   0.258409E+08
     0.111     0.063    54672.5    
     0.111     0.079    93.7317    
     0.111     0.095   0.137779    
     0.111     0.111   0.343764E-03
     0.111     0.127   0.755073E-01
     0.111     0.143    27.6468    
     0.111     0.159    7615.14    
     0.111     0.175   0.140420E+07
     0.111     0.190   0.130279E+09
     0.111     0.206   0.140420E+07
     0.111     0.222    7615.14    
     0.111     0.238    27.6468    
     0.111     0.254   0.757110E-01
     0.111     0.270   0.932511E-01
     0.111     0.286    34.0719    
     0.111     0.302    9378.98    
     0.111     0.317   0.172729E+07
     0.111     0.333   0.159847E+09
     0.111     0.349   0.172729E+07
     0.111     0.365    9378.98    
     0.111     0.381    34.0719    
     0.111     0.397   0.932415E-01
     0.111     0.413   0.713326E-01
     0.111     0.429    26.0461    
     0.111     0.444    7175.49    
     0.111     0.460   0.132359E+07
     0.111     0.476   0.122885E+09
     0.111     0.492   0.132359E+07
     0.111     0.508    7175.49    
     0.111     0.524    26.0461    
     0.111     0.540   0.712939E-01
     0.111     0.556   0.756197E-01
     0.111     0.571    27.6324    
     0.111     0.587    7611.79    
     0.111     0.603   0.140379E+07
     0.111     0.619   0.130277E+09
     0.111     0.635   0.140379E+07
     0.111     0.651    7611.79    
     0.111     0.667    27.6324    
     0.111     0.683   0.757062E-01
     0.111     0.698   0.110739    
     0.111     0.714    40.4739    
     0.111     0.730    11141.7    
     0.111     0.746   0.205204E+07
     0.111     0.762   0.189923E+09
     0.111     0.778   0.205204E+07
     0.111     0.794    11141.7    
     0.111     0.810    40.4739    
     0.111     0.825   0.110574    
     0.111     0.841   0.392400E-03
     0.111     0.857   0.808139E-01
     0.111     0.873    34.7715    
     0.111     0.889    10720.9    
     0.111     0.905   0.177743E+07
     0.111     0.921    36370.6    
     0.111     0.937   0.944573E+07
     0.111     0.952   0.262128E+10
     0.111     0.968   0.488502E+12
     0.111     0.984   0.461001E+14
     0.111     1.000   0.354039E-56
     0.127     0.000   0.188644-258
     0.127     0.016   0.176097E+10
     0.127     0.032   0.103364E+08
     0.127     0.048    32803.5    
     0.127     0.063    74.9853    
     0.127     0.079   0.137779    
     0.127     0.095   0.214086E-03
     0.127     0.111   0.547697E-06
     0.127     0.127   0.118114E-03
     0.127     0.143   0.431471E-01
     0.127     0.159    11.8487    
     0.127     0.175    2175.80    
     0.127     0.190    200612.    
     0.127     0.206    2175.80    
     0.127     0.222    11.8487    
     0.127     0.238   0.431471E-01
     0.127     0.254   0.118434E-03
     0.127     0.270   0.145898E-03
     0.127     0.286   0.531921E-01
     0.127     0.302    14.6024    
     0.127     0.317    2679.76    
     0.127     0.333    246770.    
     0.127     0.349    2679.76    
     0.127     0.365    14.6024    
     0.127     0.381   0.531921E-01
     0.127     0.397   0.145883E-03
     0.127     0.413   0.111579E-03
     0.127     0.429   0.406451E-01
     0.127     0.444    11.1627    
     0.127     0.460    2050.18    
     0.127     0.476    189095.    
     0.127     0.492    2050.18    
     0.127     0.508    11.1627    
     0.127     0.524   0.406451E-01
     0.127     0.540   0.111518E-03
     0.127     0.556   0.118287E-03
     0.127     0.571   0.431225E-01
     0.127     0.587    11.8425    
     0.127     0.603    2174.84    
     0.127     0.619    200553.    
     0.127     0.635    2174.84    
     0.127     0.651    11.8425    
     0.127     0.667   0.431225E-01
     0.127     0.683   0.118423E-03
     0.127     0.698   0.173256E-03
     0.127     0.714   0.631853E-01
     0.127     0.730    17.3461    
     0.127     0.746    3183.39    
     0.127     0.762    293166.    
     0.127     0.778    3183.39    
     0.127     0.794    17.3461    
     0.127     0.810   0.631853E-01
     0.127     0.825   0.172998E-03
     0.127     0.841   0.547459E-06
     0.127     0.857   0.858323E-04
     0.127     0.873   0.346347E-01
     0.127     0.889    9.93498    
     0.127     0.905    1531.69    
     0.127     0.921    65.8492    
     0.127     0.937    20519.9    
     0.127     0.952   0.566743E+07
     0.127     0.968   0.104852E+10
     0.127     0.984   0.977018E+11
     0.127     1.000    0.00000    
     0.143     0.000    0.00000    
     0.143     0.016   0.172274E+07
     0.143     0.032    10934.5    
     0.143     0.048    37.4927    
     0.143     0.063   0.918526E-01
     0.143     0.079   0.178405E-03
     0.143     0.095   0.288558E-06
     0.143     0.111   0.755237E-09
     0.143     0.127   0.161963E-06
     0.143     0.143   0.590573E-04
     0.143     0.159   0.161803E-01
     0.143     0.175    2.96224    
     0.143     0.190    271.990    
     0.143     0.206    2.96224    
     0.143     0.222   0.161803E-01
     0.143     0.238   0.590573E-04
     0.143     0.254   0.162402E-06
     0.143     0.270   0.200083E-06
     0.143     0.286   0.728197E-04
     0.143     0.302   0.199472E-01
     0.143     0.317    3.65066    
     0.143     0.333    334.989    
     0.143     0.349    3.65066    
     0.143     0.365   0.199472E-01
     0.143     0.381   0.728197E-04
     0.143     0.397   0.200062E-06
     0.143     0.413   0.152997E-06
     0.143     0.429   0.556298E-04
     0.143     0.444   0.152421E-01
     0.143     0.460    2.79073    
     0.143     0.476    256.287    
     0.143     0.492    2.79073    
     0.143     0.508   0.152421E-01
     0.143     0.524   0.556298E-04
     0.143     0.540   0.152914E-06
     0.143     0.556   0.162197E-06
     0.143     0.571   0.590218E-04
     0.143     0.587   0.161711E-01
     0.143     0.603    2.96069    
     0.143     0.619    271.871    
     0.143     0.635    2.96069    
     0.143     0.651   0.161711E-01
     0.143     0.667   0.590218E-04
     0.143     0.683   0.162383E-06
     0.143     0.698   0.237600E-06
     0.143     0.714   0.864991E-04
     0.143     0.730   0.236947E-01
     0.143     0.746    4.33661    
     0.143     0.762    397.947    
     0.143     0.778    4.33661    
     0.143     0.794   0.236947E-01
     0.143     0.810   0.864991E-04
     0.143     0.825   0.237244E-06
     0.143     0.841   0.691550E-09
     0.143     0.857   0.839364E-07
     0.143     0.873   0.321875E-04
     0.143     0.889   0.865908E-02
     0.143     0.905    1.24210    
     0.143     0.921   0.110505    
     0.143     0.937    37.2764    
     0.143     0.952    10260.0    
     0.143     0.968   0.188916E+07
     0.143     0.984   0.174756E+09
     0.143     1.000    0.00000    
     0.159     0.000    0.00000    
     0.159     0.016    1562.09    
     0.159     0.032    10.7122    
     0.159     0.048   0.393655E-01
     0.159     0.063   0.101946E-03
     0.159     0.079   0.206112E-06
     0.159     0.095   0.342331E-09
     0.159     0.111   0.916368E-12
     0.159     0.127   0.197697E-09
     0.159     0.143   0.719839E-07
     0.159     0.159   0.196860E-04
     0.159     0.175   0.359569E-02
     0.159     0.190   0.329157    
     0.159     0.206   0.359569E-02
     0.159     0.222   0.196860E-04
     0.159     0.238   0.719839E-07
     0.159     0.254   0.198233E-09
     0.159     0.270   0.244244E-09
     0.159     0.286   0.887681E-07
     0.159     0.302   0.242734E-04
     0.159     0.317   0.443280E-02
     0.159     0.333   0.405653    
     0.159     0.349   0.443280E-02
     0.159     0.365   0.242734E-04
     0.159     0.381   0.887681E-07
     0.159     0.397   0.244219E-09
     0.159     0.413   0.186749E-09
     0.159     0.429   0.678040E-07
     0.159     0.444   0.185434E-04
     0.159     0.460   0.338719E-02
     0.159     0.476   0.310099    
     0.159     0.492   0.338719E-02
     0.159     0.508   0.185434E-04
     0.159     0.524   0.678040E-07
     0.159     0.540   0.186648E-09
     0.159     0.556   0.197980E-09
     0.159     0.571   0.719390E-07
     0.159     0.587   0.196741E-04
     0.159     0.603   0.359364E-02
     0.159     0.619   0.328985    
     0.159     0.635   0.359364E-02
     0.159     0.651   0.196741E-04
     0.159     0.667   0.719390E-07
     0.159     0.683   0.198207E-09
     0.159     0.698   0.290039E-09
     0.159     0.714   0.105442E-06
     0.159     0.730   0.288333E-04
     0.159     0.746   0.526559E-02
     0.159     0.762   0.481874    
     0.159     0.778   0.526559E-02
     0.159     0.794   0.288333E-04
     0.159     0.810   0.105442E-06
     0.159     0.825   0.289604E-09
     0.159     0.841   0.794247E-12
     0.159     0.857   0.756754E-10
     0.159     0.873   0.279793E-07
     0.159     0.889   0.715334E-05
     0.159     0.905   0.962452E-03
     0.159     0.921   0.166505E-03
     0.159     0.937   0.581983E-01
     0.159     0.952    15.9756    
     0.159     0.968    2931.44    
     0.159     0.984    269884.    
     0.159     1.000    0.00000    
     0.175     0.000    0.00000    
     0.175     0.016    1.33906    
     0.175     0.032   0.984169E-02
     0.175     0.048   0.382323E-04
     0.175     0.063   0.103072E-06
     0.175     0.079   0.214027E-09
     0.175     0.095   0.361403E-12
     0.175     0.111   0.991951E-15
     0.175     0.127   0.217421E-12
     0.175     0.143   0.790790E-10
     0.175     0.159   0.215954E-07
     0.175     0.175   0.393727E-05
     0.175     0.190   0.359590E-03
     0.175     0.206   0.393727E-05
     0.175     0.222   0.215954E-07
     0.175     0.238   0.790790E-10
     0.175     0.254   0.218011E-12
     0.175     0.270   0.268624E-12
     0.175     0.286   0.975241E-10
     0.175     0.302   0.266307E-07
     0.175     0.317   0.485478E-05
     0.175     0.333   0.443306E-03
     0.175     0.349   0.485478E-05
     0.175     0.365   0.266307E-07
     0.175     0.381   0.975241E-10
     0.175     0.397   0.268597E-12
     0.175     0.413   0.205379E-12
     0.175     0.429   0.744856E-10
     0.175     0.444   0.203414E-07
     0.175     0.460   0.370876E-05
     0.175     0.476   0.338739E-03
     0.175     0.492   0.370876E-05
     0.175     0.508   0.203414E-07
     0.175     0.524   0.744856E-10
     0.175     0.540   0.205267E-12
     0.175     0.556   0.217730E-12
     0.175     0.571   0.790285E-10
     0.175     0.587   0.215819E-07
     0.175     0.603   0.393489E-05
     0.175     0.619   0.359385E-03
     0.175     0.635   0.393489E-05
     0.175     0.651   0.215819E-07
     0.175     0.667   0.790285E-10
     0.175     0.683   0.217981E-12
     0.175     0.698   0.318988E-12
     0.175     0.714   0.115842E-09
     0.175     0.730   0.316330E-07
     0.175     0.746   0.576677E-05
     0.175     0.762   0.526590E-03
     0.175     0.778   0.576677E-05
     0.175     0.794   0.316330E-07
     0.175     0.810   0.115842E-09
     0.175     0.825   0.318510E-12
     0.175     0.841   0.833730E-15
     0.175     0.857   0.628943E-13
     0.175     0.873   0.227034E-10
     0.175     0.889   0.559660E-08
     0.175     0.905   0.715773E-06
     0.175     0.921   0.224135E-06
     0.175     0.937   0.796762E-04
     0.175     0.952   0.218245E-01
     0.175     0.968    3.99395    
     0.175     0.984    366.437    
     0.175     1.000    0.00000    
     0.190     0.000    0.00000    
     0.190     0.016   0.111006E-02
     0.190     0.032   0.879833E-05
     0.190     0.048   0.371167E-07
     0.190     0.063   0.111890E-09
     0.190     0.079   0.277061E-12
     0.190     0.095   0.619412E-15
     0.190     0.111   0.180566E-17
     0.190     0.127   0.217551E-15
     0.190     0.143   0.790625E-13
     0.190     0.159   0.215672E-10
     0.190     0.175   0.392651E-08
     0.190     0.190   0.357955E-06
     0.190     0.206   0.392651E-08
     0.190     0.222   0.215672E-10
     0.190     0.238   0.790625E-13
     0.190     0.254   0.218140E-15
     0.190     0.270   0.268791E-15
     0.190     0.286   0.975081E-13
     0.190     0.302   0.265977E-10
     0.190     0.317   0.484204E-08
     0.190     0.333   0.441370E-06
     0.190     0.349   0.484204E-08
     0.190     0.365   0.265977E-10
     0.190     0.381   0.975081E-13
     0.190     0.397   0.268763E-15
     0.190     0.413   0.205498E-15
     0.190     0.429   0.744690E-13
     0.190     0.444   0.203144E-10
     0.190     0.460   0.369851E-08
     0.190     0.476   0.337180E-06
     0.190     0.492   0.369851E-08
     0.190     0.508   0.203144E-10
     0.190     0.524   0.744690E-13
     0.190     0.540   0.205386E-15
     0.190     0.556   0.217857E-15
     0.190     0.571   0.790111E-13
     0.190     0.587   0.215534E-10
     0.190     0.603   0.392406E-08
     0.190     0.619   0.357739E-06
     0.190     0.635   0.392406E-08
     0.190     0.651   0.215534E-10
     0.190     0.667   0.790111E-13
     0.190     0.683   0.218108E-15
     0.190     0.698   0.319185E-15
     0.190     0.714   0.115822E-12
     0.190     0.730   0.315936E-10
     0.190     0.746   0.575157E-08
     0.190     0.762   0.524283E-06
     0.190     0.778   0.575157E-08
     0.190     0.794   0.315936E-10
     0.190     0.810   0.115822E-12
     0.190     0.825   0.318707E-15
     0.190     0.841   0.804385E-18
     0.190     0.857   0.482134E-16
     0.190     0.873   0.171539E-13
     0.190     0.889   0.412876E-11
     0.190     0.905   0.509306E-09
     0.190     0.921   0.270905E-09
     0.190     0.937   0.971287E-07
     0.190     0.952   0.265588E-04
     0.190     0.968   0.484992E-02
     0.190     0.984   0.443780    