Title="Temperature Data"
Variables="X","Y","T"
 
Zone I=   128, J=   128, F=POINT
     0.000     0.000    0.00000    
     0.000     0.008    0.00000    
     0.000     0.016    0.00000    
     0.000     0.024    0.00000    
     0.000     0.031    0.00000    
     0.000     0.039    0.00000    
     0.000     0.047    0.00000    
     0.000     0.055    0.00000    
     0.000     0.063    0.00000    
     0.000     0.071    0.00000    
     0.000     0.079    0.00000    
     0.000     0.087    0.00000    
     0.000     0.094    0.00000    
     0.000     0.102    0.00000    
     0.000     0.110    0.00000    
     0.000     0.118    0.00000    
     0.000     0.126    0.00000    
     0.000     0.134    0.00000    
     0.000     0.142    0.00000    
     0.000     0.150    0.00000    
     0.000     0.157    0.00000    
     0.000     0.165    0.00000    
     0.000     0.173    0.00000    
     0.000     0.181    0.00000    
     0.000     0.189    0.00000    
     0.000     0.197    0.00000    
     0.000     0.205    0.00000    
     0.000     0.213    0.00000    
     0.000     0.220    0.00000    
     0.000     0.228    0.00000    
     0.000     0.236    0.00000    
     0.000     0.244    0.00000    
     0.000     0.252    0.00000    
     0.000     0.260    0.00000    
     0.000     0.268    0.00000    
     0.000     0.276    0.00000    
     0.000     0.283    0.00000    
     0.000     0.291    0.00000    
     0.000     0.299    0.00000    
     0.000     0.307    0.00000    
     0.000     0.315    0.00000    
     0.000     0.323    0.00000    
     0.000     0.331    0.00000    
     0.000     0.339    0.00000    
     0.000     0.346    0.00000    
     0.000     0.354    0.00000    
     0.000     0.362    0.00000    
     0.000     0.370    0.00000    
     0.000     0.378    0.00000    
     0.000     0.386    0.00000    
     0.000     0.394    0.00000    
     0.000     0.402    0.00000    
     0.000     0.409    0.00000    
     0.000     0.417    0.00000    
     0.000     0.425    0.00000    
     0.000     0.433    0.00000    
     0.000     0.441    0.00000    
     0.000     0.449    0.00000    
     0.000     0.457    0.00000    
     0.000     0.465    0.00000    
     0.000     0.472    0.00000    
     0.000     0.480    0.00000    
     0.000     0.488    0.00000    
     0.000     0.496    0.00000    
     0.000     0.504    0.00000    
     0.000     0.512    0.00000    
     0.000     0.520    0.00000    
     0.000     0.528    0.00000    
     0.000     0.535    0.00000    
     0.000     0.543    0.00000    
     0.000     0.551    0.00000    
     0.000     0.559    0.00000    
     0.000     0.567    0.00000    
     0.000     0.575    0.00000    
     0.000     0.583    0.00000    
     0.000     0.591    0.00000    
     0.000     0.598    0.00000    
     0.000     0.606    0.00000    
     0.000     0.614    0.00000    
     0.000     0.622    0.00000    
     0.000     0.630    0.00000    
     0.000     0.638    0.00000    
     0.000     0.646    0.00000    
     0.000     0.654    0.00000    
     0.000     0.661    0.00000    
     0.000     0.669    0.00000    
     0.000     0.677    0.00000    
     0.000     0.685    0.00000    
     0.000     0.693    0.00000    
     0.000     0.701    0.00000    
     0.000     0.709    0.00000    
     0.000     0.717    0.00000    
     0.000     0.724    0.00000    
     0.000     0.732    0.00000    
     0.000     0.740    0.00000    
     0.000     0.748    0.00000    
     0.000     0.756    0.00000    
     0.000     0.764    0.00000    
     0.000     0.772    0.00000    
     0.000     0.780    0.00000    
     0.000     0.787    0.00000    
     0.000     0.795    0.00000    
     0.000     0.803    0.00000    
     0.000     0.811    0.00000    
     0.000     0.819    0.00000    
     0.000     0.827    0.00000    
     0.000     0.835    0.00000    
     0.000     0.843    0.00000    
     0.000     0.850    0.00000    
     0.000     0.858    0.00000    
     0.000     0.866    0.00000    
     0.000     0.874    0.00000    
     0.000     0.882    0.00000    
     0.000     0.890    0.00000    
     0.000     0.898    0.00000    
     0.000     0.906    0.00000    
     0.000     0.913    0.00000    
     0.000     0.921    0.00000    
     0.000     0.929    0.00000    
     0.000     0.937    0.00000    
     0.000     0.945    0.00000    
     0.000     0.953    0.00000    
     0.000     0.961    0.00000    
     0.000     0.969    0.00000    
     0.000     0.976    0.00000    
     0.000     0.984    0.00000    
     0.000     0.992    0.00000    
     0.000     1.000    0.00000    
     0.008     0.000   0.247344E-01
     0.008     0.008   0.240432E-01
     0.008     0.016   0.233669E-01
     0.008     0.024   0.227051E-01
     0.008     0.031   0.220577E-01
     0.008     0.039   0.214243E-01
     0.008     0.047   0.208048E-01
     0.008     0.055   0.201988E-01
     0.008     0.063   0.196063E-01
     0.008     0.071   0.190268E-01
     0.008     0.079   0.184604E-01
     0.008     0.087   0.179065E-01
     0.008     0.094   0.173654E-01
     0.008     0.102   0.168362E-01
     0.008     0.110   0.163196E-01
     0.008     0.118   0.158144E-01
     0.008     0.126   0.153215E-01
     0.008     0.134   0.148395E-01
     0.008     0.142   0.143695E-01
     0.008     0.150   0.139101E-01
     0.008     0.157   0.134624E-01
     0.008     0.165   0.130248E-01
     0.008     0.173   0.125986E-01
     0.008     0.181   0.121822E-01
     0.008     0.189   0.117769E-01
     0.008     0.197   0.113811E-01
     0.008     0.205   0.109960E-01
     0.008     0.213   0.106200E-01
     0.008     0.220   0.102545E-01
     0.008     0.228   0.989787E-02
     0.008     0.236   0.955137E-02
     0.008     0.244   0.921335E-02
     0.008     0.252   0.888523E-02
     0.008     0.260   0.856527E-02
     0.008     0.268   0.825492E-02
     0.008     0.276   0.795242E-02
     0.008     0.283   0.765924E-02
     0.008     0.291   0.737360E-02
     0.008     0.299   0.709701E-02
     0.008     0.307   0.682764E-02
     0.008     0.315   0.656704E-02
     0.008     0.323   0.631336E-02
     0.008     0.331   0.606817E-02
     0.008     0.339   0.582960E-02
     0.008     0.346   0.559922E-02
     0.008     0.354   0.537518E-02
     0.008     0.362   0.515905E-02
     0.008     0.370   0.494897E-02
     0.008     0.378   0.474649E-02
     0.008     0.386   0.454979E-02
     0.008     0.394   0.436041E-02
     0.008     0.402   0.417652E-02
     0.008     0.409   0.399966E-02
     0.008     0.417   0.382802E-02
     0.008     0.425   0.366311E-02
     0.008     0.433   0.350317E-02
     0.008     0.441   0.334966E-02
     0.008     0.449   0.320086E-02
     0.008     0.457   0.305819E-02
     0.008     0.465   0.291998E-02
     0.008     0.472   0.278762E-02
     0.008     0.480   0.265947E-02
     0.008     0.488   0.253687E-02
     0.008     0.496   0.241825E-02
     0.008     0.504   0.230489E-02
     0.008     0.512   0.219529E-02
     0.008     0.520   0.209066E-02
     0.008     0.528   0.198956E-02
     0.008     0.535   0.189316E-02
     0.008     0.543   0.180007E-02
     0.008     0.551   0.171141E-02
     0.008     0.559   0.162585E-02
     0.008     0.567   0.154446E-02
     0.008     0.575   0.146596E-02
     0.008     0.583   0.139137E-02
     0.008     0.591   0.131948E-02
     0.008     0.598   0.125126E-02
     0.008     0.606   0.118554E-02
     0.008     0.614   0.112325E-02
     0.008     0.622   0.106329E-02
     0.008     0.630   0.100651E-02
     0.008     0.638   0.951904E-03
     0.008     0.646   0.900254E-03
     0.008     0.654   0.850605E-03
     0.008     0.661   0.803702E-03
     0.008     0.669   0.758644E-03
     0.008     0.677   0.716127E-03
     0.008     0.685   0.675308E-03
     0.008     0.693   0.636832E-03
     0.008     0.701   0.599917E-03
     0.008     0.709   0.565157E-03
     0.008     0.717   0.531826E-03
     0.008     0.724   0.500472E-03
     0.008     0.732   0.470423E-03
     0.008     0.740   0.442184E-03
     0.008     0.748   0.415133E-03
     0.008     0.756   0.389731E-03
     0.008     0.764   0.365407E-03
     0.008     0.772   0.342583E-03
     0.008     0.780   0.320734E-03
     0.008     0.787   0.300242E-03
     0.008     0.795   0.280629E-03
     0.008     0.803   0.262239E-03
     0.008     0.811   0.244638E-03
     0.008     0.819   0.228134E-03
     0.008     0.827   0.212333E-03
     0.008     0.835   0.197511E-03
     0.008     0.843   0.183313E-03
     0.008     0.850   0.169981E-03
     0.008     0.858   0.157199E-03
     0.008     0.866   0.145178E-03
     0.008     0.874   0.133637E-03
     0.008     0.882   0.122758E-03
     0.008     0.890   0.112292E-03
     0.008     0.898   0.102392E-03
     0.008     0.906   0.928443E-04
     0.008     0.913   0.837734E-04
     0.008     0.921   0.749945E-04
     0.008     0.929   0.666069E-04
     0.008     0.937   0.584545E-04
     0.008     0.945   0.506112E-04
     0.008     0.953   0.429485E-04
     0.008     0.961   0.355152E-04
     0.008     0.969   0.282097E-04
     0.008     0.976   0.210560E-04
     0.008     0.984   0.139785E-04
     0.008     0.992   0.697661E-05
     0.008     1.000    0.00000    
     0.016     0.000   0.494537E-01
     0.016     0.008   0.480717E-01
     0.016     0.016   0.467194E-01
     0.016     0.024   0.453963E-01
     0.016     0.031   0.441018E-01
     0.016     0.039   0.428356E-01
     0.016     0.047   0.415967E-01
     0.016     0.055   0.403854E-01
     0.016     0.063   0.392004E-01
     0.016     0.071   0.380422E-01
     0.016     0.079   0.369093E-01
     0.016     0.087   0.358024E-01
     0.016     0.094   0.347198E-01
     0.016     0.102   0.336626E-01
     0.016     0.110   0.326287E-01
     0.016     0.118   0.316196E-01
     0.016     0.126   0.306330E-01
     0.016     0.134   0.296705E-01
     0.016     0.142   0.287297E-01
     0.016     0.150   0.278123E-01
     0.016     0.157   0.269159E-01
     0.016     0.165   0.260423E-01
     0.016     0.173   0.251888E-01
     0.016     0.181   0.243577E-01
     0.016     0.189   0.235459E-01
     0.016     0.197   0.227559E-01
     0.016     0.205   0.219845E-01
     0.016     0.213   0.212343E-01
     0.016     0.220   0.205021E-01
     0.016     0.228   0.197904E-01
     0.016     0.236   0.190961E-01
     0.016     0.244   0.184219E-01
     0.016     0.252   0.177642E-01
     0.016     0.260   0.171261E-01
     0.016     0.268   0.165040E-01
     0.016     0.276   0.159008E-01
     0.016     0.283   0.153130E-01
     0.016     0.291   0.147435E-01
     0.016     0.299   0.141888E-01
     0.016     0.307   0.136520E-01
     0.016     0.315   0.131292E-01
     0.016     0.323   0.126237E-01
     0.016     0.331   0.121318E-01
     0.016     0.339   0.116565E-01
     0.016     0.346   0.111942E-01
     0.016     0.354   0.107479E-01
     0.016     0.362   0.103141E-01
     0.016     0.370   0.989575E-02
     0.016     0.378   0.948924E-02
     0.016     0.386   0.909764E-02
     0.016     0.394   0.871731E-02
     0.016     0.402   0.835132E-02
     0.016     0.409   0.799605E-02
     0.016     0.417   0.765452E-02
     0.016     0.425   0.732318E-02
     0.016     0.433   0.700499E-02
     0.016     0.441   0.669648E-02
     0.016     0.449   0.640053E-02
     0.016     0.457   0.611374E-02
     0.016     0.465   0.583893E-02
     0.016     0.472   0.557279E-02
     0.016     0.480   0.531803E-02
     0.016     0.488   0.507147E-02
     0.016     0.496   0.483572E-02
     0.016     0.504   0.460769E-02
     0.016     0.512   0.438990E-02
     0.016     0.520   0.417938E-02
     0.016     0.528   0.397854E-02
     0.016     0.535   0.378453E-02
     0.016     0.543   0.359965E-02
     0.016     0.551   0.342117E-02
     0.016     0.559   0.325129E-02
     0.016     0.567   0.308740E-02
     0.016     0.575   0.293158E-02
     0.016     0.583   0.278135E-02
     0.016     0.591   0.263869E-02
     0.016     0.598   0.250124E-02
     0.016     0.606   0.237086E-02
     0.016     0.614   0.224533E-02
     0.016     0.622   0.212640E-02
     0.016     0.630   0.201196E-02
     0.016     0.638   0.190367E-02
     0.016     0.646   0.179953E-02
     0.016     0.654   0.170110E-02
     0.016     0.661   0.160651E-02
     0.016     0.669   0.151721E-02
     0.016     0.677   0.143144E-02
     0.016     0.685   0.135056E-02
     0.016     0.693   0.127293E-02
     0.016     0.701   0.119980E-02
     0.016     0.709   0.112965E-02
     0.016     0.717   0.106363E-02
     0.016     0.724   0.100034E-02
     0.016     0.732   0.940841E-03
     0.016     0.740   0.883827E-03
     0.016     0.748   0.830269E-03
     0.016     0.756   0.778976E-03
     0.016     0.764   0.730827E-03
     0.016     0.772   0.684731E-03
     0.016     0.780   0.641487E-03
     0.016     0.787   0.600096E-03
     0.016     0.795   0.561282E-03
     0.016     0.803   0.524134E-03
     0.016     0.811   0.489302E-03
     0.016     0.819   0.455962E-03
     0.016     0.827   0.424694E-03
     0.016     0.835   0.394752E-03
     0.016     0.843   0.366653E-03
     0.016     0.850   0.339727E-03
     0.016     0.858   0.314426E-03
     0.016     0.866   0.290153E-03
     0.016     0.874   0.267300E-03
     0.016     0.882   0.245340E-03
     0.016     0.890   0.224607E-03
     0.016     0.898   0.204637E-03
     0.016     0.906   0.185710E-03
     0.016     0.913   0.167425E-03
     0.016     0.921   0.150007E-03
     0.016     0.929   0.133116E-03
     0.016     0.937   0.116924E-03
     0.016     0.945   0.101147E-03
     0.016     0.953   0.859083E-04
     0.016     0.961   0.709774E-04
     0.016     0.969   0.564271E-04
     0.016     0.976   0.420805E-04
     0.016     0.984   0.279609E-04
     0.016     0.992   0.139428E-04
     0.016     1.000    0.00000    
     0.024     0.000   0.741428E-01
     0.024     0.008   0.720708E-01
     0.024     0.016   0.700434E-01
     0.024     0.024   0.680596E-01
     0.024     0.031   0.661191E-01
     0.024     0.039   0.642203E-01
     0.024     0.047   0.623636E-01
     0.024     0.055   0.605469E-01
     0.024     0.063   0.587710E-01
     0.024     0.071   0.570338E-01
     0.024     0.079   0.553361E-01
     0.024     0.087   0.536756E-01
     0.024     0.094   0.520537E-01
     0.024     0.102   0.504675E-01
     0.024     0.110   0.489188E-01
     0.024     0.118   0.474046E-01
     0.024     0.126   0.459269E-01
     0.024     0.134   0.444823E-01
     0.024     0.142   0.430734E-01
     0.024     0.150   0.416964E-01
     0.024     0.157   0.403541E-01
     0.024     0.165   0.390426E-01
     0.024     0.173   0.377650E-01
     0.024     0.181   0.365169E-01
     0.024     0.189   0.353019E-01
     0.024     0.197   0.341153E-01
     0.024     0.205   0.329610E-01
     0.024     0.213   0.318341E-01
     0.024     0.220   0.307385E-01
     0.024     0.228   0.296694E-01
     0.024     0.236   0.286307E-01
     0.024     0.244   0.276175E-01
     0.024     0.252   0.266340E-01
     0.024     0.260   0.256748E-01
     0.024     0.268   0.247446E-01
     0.024     0.276   0.238378E-01
     0.024     0.283   0.229590E-01
     0.024     0.291   0.221028E-01
     0.024     0.299   0.212737E-01
     0.024     0.307   0.204662E-01
     0.024     0.315   0.196851E-01
     0.024     0.323   0.189246E-01
     0.024     0.331   0.181897E-01
     0.024     0.339   0.174745E-01
     0.024     0.346   0.167840E-01
     0.024     0.354   0.161124E-01
     0.024     0.362   0.154645E-01
     0.024     0.370   0.148348E-01
     0.024     0.378   0.142279E-01
     0.024     0.386   0.136382E-01
     0.024     0.394   0.130706E-01
     0.024     0.402   0.125193E-01
     0.024     0.409   0.119892E-01
     0.024     0.417   0.114747E-01
     0.024     0.425   0.109804E-01
     0.024     0.433   0.105009E-01
     0.024     0.441   0.100408E-01
     0.024     0.449   0.959474E-02
     0.024     0.457   0.916708E-02
     0.024     0.465   0.875280E-02
     0.024     0.472   0.835603E-02
     0.024     0.480   0.797189E-02
     0.024     0.488   0.760440E-02
     0.024     0.496   0.724883E-02
     0.024     0.504   0.690904E-02
     0.024     0.512   0.658048E-02
     0.024     0.520   0.626686E-02
     0.024     0.528   0.596380E-02
     0.024     0.535   0.567485E-02
     0.024     0.543   0.539580E-02
     0.024     0.551   0.513004E-02
     0.024     0.559   0.487357E-02
     0.024     0.567   0.462959E-02
     0.024     0.575   0.439429E-02
     0.024     0.583   0.417071E-02
     0.024     0.591   0.395522E-02
     0.024     0.598   0.375071E-02
     0.024     0.606   0.355373E-02
     0.024     0.614   0.336700E-02
     0.024     0.622   0.318726E-02
     0.024     0.630   0.301708E-02
     0.024     0.638   0.285338E-02
     0.024     0.646   0.269856E-02
     0.024     0.654   0.254973E-02
     0.024     0.661   0.240914E-02
     0.024     0.669   0.227408E-02
     0.024     0.677   0.214663E-02
     0.024     0.685   0.202427E-02
     0.024     0.693   0.190894E-02
     0.024     0.701   0.179828E-02
     0.024     0.709   0.169409E-02
     0.024     0.717   0.159418E-02
     0.024     0.724   0.150019E-02
     0.024     0.732   0.141012E-02
     0.024     0.740   0.132547E-02
     0.024     0.748   0.124438E-02
     0.024     0.756   0.116824E-02
     0.024     0.764   0.109533E-02
     0.024     0.772   0.102691E-02
     0.024     0.780   0.961418E-03
     0.024     0.787   0.899992E-03
     0.024     0.795   0.841202E-03
     0.024     0.803   0.786077E-03
     0.024     0.811   0.733316E-03
     0.024     0.819   0.683843E-03
     0.024     0.827   0.636480E-03
     0.024     0.835   0.592049E-03
     0.024     0.843   0.549490E-03
     0.024     0.850   0.509527E-03
     0.024     0.858   0.471214E-03
     0.024     0.866   0.435180E-03
     0.024     0.874   0.400585E-03
     0.024     0.882   0.367972E-03
     0.024     0.890   0.336600E-03
     0.024     0.898   0.306926E-03
     0.024     0.906   0.278306E-03
     0.024     0.913   0.251115E-03
     0.024     0.921   0.224800E-03
     0.024     0.929   0.199658E-03
     0.024     0.937   0.175221E-03
     0.024     0.945   0.151710E-03
     0.024     0.953   0.128740E-03
     0.024     0.961   0.106459E-03
     0.024     0.969   0.845601E-04
     0.024     0.976   0.631165E-04
     0.024     0.984   0.419014E-04
     0.024     0.992   0.209128E-04
     0.024     1.000    0.00000    
     0.031     0.000   0.987864E-01
     0.031     0.008   0.960258E-01
     0.031     0.016   0.933244E-01
     0.031     0.024   0.906816E-01
     0.031     0.031   0.880956E-01
     0.031     0.039   0.855663E-01
     0.031     0.047   0.830916E-01
     0.031     0.055   0.806720E-01
     0.031     0.063   0.783049E-01
     0.031     0.071   0.759913E-01
     0.031     0.079   0.737282E-01
     0.031     0.087   0.715171E-01
     0.031     0.094   0.693546E-01
     0.031     0.102   0.672428E-01
     0.031     0.110   0.651776E-01
     0.031     0.118   0.631619E-01
     0.031     0.126   0.611911E-01
     0.031     0.134   0.592684E-01
     0.031     0.142   0.573891E-01
     0.031     0.150   0.555566E-01
     0.031     0.157   0.537659E-01
     0.031     0.165   0.520209E-01
     0.031     0.173   0.503160E-01
     0.031     0.181   0.486558E-01
     0.031     0.189   0.470342E-01
     0.031     0.197   0.454560E-01
     0.031     0.205   0.439152E-01
     0.031     0.213   0.424166E-01
     0.031     0.220   0.409539E-01
     0.031     0.228   0.395324E-01
     0.031     0.236   0.381455E-01
     0.031     0.244   0.367986E-01
     0.031     0.252   0.354850E-01
     0.031     0.260   0.342103E-01
     0.031     0.268   0.329676E-01
     0.031     0.276   0.317627E-01
     0.031     0.283   0.305885E-01
     0.031     0.291   0.294510E-01
     0.031     0.299   0.283429E-01
     0.031     0.307   0.272705E-01
     0.031     0.315   0.262263E-01
     0.031     0.323   0.252165E-01
     0.031     0.331   0.242338E-01
     0.031     0.339   0.232844E-01
     0.031     0.346   0.223609E-01
     0.031     0.354   0.214696E-01
     0.031     0.362   0.206029E-01
     0.031     0.370   0.197673E-01
     0.031     0.378   0.189553E-01
     0.031     0.386   0.181730E-01
     0.031     0.394   0.174133E-01
     0.031     0.402   0.166822E-01
     0.031     0.409   0.159725E-01
     0.031     0.417   0.152903E-01
     0.031     0.425   0.146284E-01
     0.031     0.433   0.139928E-01
     0.031     0.441   0.133766E-01
     0.031     0.449   0.127854E-01
     0.031     0.457   0.122125E-01
     0.031     0.465   0.116636E-01
     0.031     0.472   0.111319E-01
     0.031     0.480   0.106231E-01
     0.031     0.488   0.101305E-01
     0.031     0.496   0.965960E-02
     0.031     0.504   0.920410E-02
     0.031     0.512   0.876906E-02
     0.031     0.520   0.834853E-02
     0.031     0.528   0.794735E-02
     0.031     0.535   0.755980E-02
     0.031     0.543   0.719050E-02
     0.031     0.551   0.683397E-02
     0.031     0.559   0.649463E-02
     0.031     0.567   0.616724E-02
     0.031     0.575   0.585598E-02
     0.031     0.583   0.555589E-02
     0.031     0.591   0.527092E-02
     0.031     0.598   0.499635E-02
     0.031     0.606   0.473592E-02
     0.031     0.614   0.448516E-02
     0.031     0.622   0.424759E-02
     0.031     0.630   0.401899E-02
     0.031     0.638   0.380267E-02
     0.031     0.646   0.359466E-02
     0.031     0.654   0.339804E-02
     0.031     0.661   0.320910E-02
     0.031     0.669   0.303070E-02
     0.031     0.677   0.285939E-02
     0.031     0.685   0.269782E-02
     0.031     0.693   0.254275E-02
     0.031     0.701   0.239666E-02
     0.031     0.709   0.225653E-02
     0.031     0.717   0.212466E-02
     0.031     0.724   0.199824E-02
     0.031     0.732   0.187938E-02
     0.031     0.740   0.176549E-02
     0.031     0.748   0.165851E-02
     0.031     0.756   0.155605E-02
     0.031     0.764   0.145987E-02
     0.031     0.772   0.136779E-02
     0.031     0.780   0.128140E-02
     0.031     0.787   0.119872E-02
     0.031     0.795   0.112119E-02
     0.031     0.803   0.104698E-02
     0.031     0.811   0.977407E-03
     0.031     0.819   0.910808E-03
     0.031     0.827   0.848348E-03
     0.031     0.835   0.788539E-03
     0.031     0.843   0.732409E-03
     0.031     0.850   0.678623E-03
     0.031     0.858   0.628082E-03
     0.031     0.866   0.579596E-03
     0.031     0.874   0.533947E-03
     0.031     0.882   0.490080E-03
     0.031     0.890   0.448663E-03
     0.031     0.898   0.408773E-03
     0.031     0.906   0.370965E-03
     0.031     0.913   0.334440E-03
     0.031     0.921   0.299647E-03
     0.031     0.929   0.265906E-03
     0.031     0.937   0.233562E-03
     0.031     0.945   0.202047E-03
     0.031     0.953   0.171606E-03
     0.031     0.961   0.141781E-03
     0.031     0.969   0.112716E-03
     0.031     0.976   0.840581E-04
     0.031     0.984   0.558535E-04
     0.031     0.992   0.278514E-04
     0.031     1.000    0.00000    
     0.039     0.000   0.123370    
     0.039     0.008   0.119922    
     0.039     0.016   0.116549    
     0.039     0.024   0.113248    
     0.039     0.031   0.110019    
     0.039     0.039   0.106859    
     0.039     0.047   0.103770    
     0.039     0.055   0.100747    
     0.039     0.063   0.977919E-01
     0.039     0.071   0.949012E-01
     0.039     0.079   0.920764E-01
     0.039     0.087   0.893134E-01
     0.039     0.094   0.866146E-01
     0.039     0.102   0.839752E-01
     0.039     0.110   0.813983E-01
     0.039     0.118   0.788787E-01
     0.039     0.126   0.764199E-01
     0.039     0.134   0.740162E-01
     0.039     0.142   0.716719E-01
     0.039     0.150   0.693806E-01
     0.039     0.157   0.671472E-01
     0.039     0.165   0.649648E-01
     0.039     0.173   0.628389E-01
     0.039     0.181   0.607622E-01
     0.039     0.189   0.587405E-01
     0.039     0.197   0.567661E-01
     0.039     0.205   0.548454E-01
     0.039     0.213   0.529703E-01
     0.039     0.220   0.511473E-01
     0.039     0.228   0.493683E-01
     0.039     0.236   0.476400E-01
     0.039     0.244   0.459541E-01
     0.039     0.252   0.443175E-01
     0.039     0.260   0.427216E-01
     0.039     0.268   0.411737E-01
     0.039     0.276   0.396648E-01
     0.039     0.283   0.382026E-01
     0.039     0.291   0.367778E-01
     0.039     0.299   0.353983E-01
     0.039     0.307   0.340547E-01
     0.039     0.315   0.327549E-01
     0.039     0.323   0.314896E-01
     0.039     0.331   0.302666E-01
     0.039     0.339   0.290767E-01
     0.039     0.346   0.279276E-01
     0.039     0.354   0.268102E-01
     0.039     0.362   0.257321E-01
     0.039     0.370   0.246843E-01
     0.039     0.378   0.236744E-01
     0.039     0.386   0.226933E-01
     0.039     0.394   0.217487E-01
     0.039     0.402   0.208315E-01
     0.039     0.409   0.199494E-01
     0.039     0.417   0.190933E-01
     0.039     0.425   0.182708E-01
     0.039     0.433   0.174730E-01
     0.039     0.441   0.167073E-01
     0.039     0.449   0.159651E-01
     0.039     0.457   0.152535E-01
     0.039     0.465   0.145642E-01
     0.039     0.472   0.139040E-01
     0.039     0.480   0.132648E-01
     0.039     0.488   0.126533E-01
     0.039     0.496   0.120617E-01
     0.039     0.504   0.114963E-01
     0.039     0.512   0.109496E-01
     0.039     0.520   0.104277E-01
     0.039     0.528   0.992345E-02
     0.039     0.535   0.944265E-02
     0.039     0.543   0.897833E-02
     0.039     0.551   0.853612E-02
     0.039     0.559   0.810936E-02
     0.039     0.567   0.770340E-02
     0.039     0.575   0.731186E-02
     0.039     0.583   0.693984E-02
     0.039     0.591   0.658128E-02
     0.039     0.598   0.624098E-02
     0.039     0.606   0.591322E-02
     0.039     0.614   0.560251E-02
     0.039     0.622   0.530344E-02
     0.039     0.630   0.502027E-02
     0.039     0.638   0.474788E-02
     0.039     0.646   0.449026E-02
     0.039     0.654   0.424262E-02
     0.039     0.661   0.400868E-02
     0.039     0.669   0.378394E-02
     0.039     0.677   0.357188E-02
     0.039     0.685   0.336828E-02
     0.039     0.693   0.317637E-02
     0.039     0.701   0.299225E-02
     0.039     0.709   0.281887E-02
     0.039     0.717   0.265262E-02
     0.039     0.724   0.249624E-02
     0.039     0.732   0.234636E-02
     0.039     0.740   0.220551E-02
     0.039     0.748   0.207059E-02
     0.039     0.756   0.194389E-02
     0.039     0.764   0.182257E-02
     0.039     0.772   0.170873E-02
     0.039     0.780   0.159975E-02
     0.039     0.787   0.149754E-02
     0.039     0.795   0.139972E-02
     0.039     0.803   0.130799E-02
     0.039     0.811   0.122020E-02
     0.039     0.819   0.113788E-02
     0.039     0.827   0.105907E-02
     0.039     0.835   0.985138E-03
     0.039     0.843   0.914322E-03
     0.039     0.850   0.847827E-03
     0.039     0.858   0.784075E-03
     0.039     0.866   0.724117E-03
     0.039     0.874   0.666553E-03
     0.039     0.882   0.612287E-03
     0.039     0.890   0.560084E-03
     0.039     0.898   0.510709E-03
     0.039     0.906   0.463086E-03
     0.039     0.913   0.417842E-03
     0.039     0.921   0.374055E-03
     0.039     0.929   0.332220E-03
     0.039     0.937   0.291558E-03
     0.039     0.945   0.252437E-03
     0.039     0.953   0.214217E-03
     0.039     0.961   0.177142E-03
     0.039     0.969   0.140704E-03
     0.039     0.976   0.105023E-03
     0.039     0.984   0.697218E-04
     0.039     0.992   0.347977E-04
     0.039     1.000    0.00000    
     0.047     0.000   0.147877    
     0.047     0.008   0.143745    
     0.047     0.016   0.139701    
     0.047     0.024   0.135745    
     0.047     0.031   0.131874    
     0.047     0.039   0.128088    
     0.047     0.047   0.124383    
     0.047     0.055   0.120761    
     0.047     0.063   0.117218    
     0.047     0.071   0.113754    
     0.047     0.079   0.110367    
     0.047     0.087   0.107057    
     0.047     0.094   0.103820    
     0.047     0.102   0.100658    
     0.047     0.110   0.975670E-01
     0.047     0.118   0.945496E-01
     0.047     0.126   0.915994E-01
     0.047     0.134   0.887213E-01
     0.047     0.142   0.859081E-01
     0.047     0.150   0.831650E-01
     0.047     0.157   0.804844E-01
     0.047     0.165   0.778721E-01
     0.047     0.173   0.753201E-01
     0.047     0.181   0.728348E-01
     0.047     0.189   0.704074E-01
     0.047     0.197   0.680450E-01
     0.047     0.205   0.657384E-01
     0.047     0.213   0.634951E-01
     0.047     0.220   0.613056E-01
     0.047     0.228   0.591777E-01
     0.047     0.236   0.571015E-01
     0.047     0.244   0.550854E-01
     0.047     0.252   0.531189E-01
     0.047     0.260   0.512108E-01
     0.047     0.268   0.493505E-01
     0.047     0.276   0.475468E-01
     0.047     0.283   0.457891E-01
     0.047     0.291   0.440864E-01
     0.047     0.299   0.424277E-01
     0.047     0.307   0.408223E-01
     0.047     0.315   0.392592E-01
     0.047     0.323   0.377477E-01
     0.047     0.331   0.362766E-01
     0.047     0.339   0.348554E-01
     0.047     0.346   0.334730E-01
     0.047     0.354   0.321387E-01
     0.047     0.362   0.308414E-01
     0.047     0.370   0.295904E-01
     0.047     0.378   0.283749E-01
     0.047     0.386   0.272039E-01
     0.047     0.394   0.260667E-01
     0.047     0.402   0.249723E-01
     0.047     0.409   0.239099E-01
     0.047     0.417   0.228887E-01
     0.047     0.425   0.218979E-01
     0.047     0.433   0.209465E-01
     0.047     0.441   0.200239E-01
     0.047     0.449   0.191390E-01
     0.047     0.457   0.182814E-01
     0.047     0.465   0.174597E-01
     0.047     0.472   0.166638E-01
     0.047     0.480   0.159021E-01
     0.047     0.488   0.151648E-01