Title="Temperature Data"
Variables="X","Y","T"
 
Zone I=    15, J=    15, F=POINT
     0.000     0.000    0.00000    
     0.000     0.071    0.00000    
     0.000     0.143    0.00000    
     0.000     0.214    0.00000    
     0.000     0.286    0.00000    
     0.000     0.357    0.00000    
     0.000     0.429    0.00000    
     0.000     0.500    0.00000    
     0.000     0.571    0.00000    
     0.000     0.643    0.00000    
     0.000     0.714    0.00000    
     0.000     0.786    0.00000    
     0.000     0.857    0.00000    
     0.000     0.929    0.00000    
     0.000     1.000    0.00000    
     0.071     0.000   0.222521    
     0.071     0.071    0.00000    
     0.071     0.143    0.00000    
     0.071     0.214    0.00000    
     0.071     0.286    0.00000    
     0.071     0.357    0.00000    
     0.071     0.429    0.00000    
     0.071     0.500    0.00000    
     0.071     0.571    0.00000    
     0.071     0.643    0.00000    
     0.071     0.714    0.00000    
     0.071     0.786    0.00000    
     0.071     0.857    0.00000    
     0.071     0.929    0.00000    
     0.071     1.000    0.00000    
     0.143     0.000   0.433884    
     0.143     0.071    0.00000    
     0.143     0.143    0.00000    
     0.143     0.214    0.00000    
     0.143     0.286    0.00000    
     0.143     0.357    0.00000    
     0.143     0.429    0.00000    
     0.143     0.500    0.00000    
     0.143     0.571    0.00000    
     0.143     0.643    0.00000    
     0.143     0.714    0.00000    
     0.143     0.786    0.00000    
     0.143     0.857    0.00000    
     0.143     0.929    0.00000    
     0.143     1.000    0.00000    
     0.214     0.000   0.623490    
     0.214     0.071    0.00000    
     0.214     0.143    0.00000    
     0.214     0.214    0.00000    
     0.214     0.286    0.00000    
     0.214     0.357    0.00000    
     0.214     0.429    0.00000    
     0.214     0.500    0.00000    
     0.214     0.571    0.00000    
     0.214     0.643    0.00000    
     0.214     0.714    0.00000    
     0.214     0.786    0.00000    
     0.214     0.857    0.00000    
     0.214     0.929    0.00000    
     0.214     1.000    0.00000    
     0.286     0.000   0.781831    
     0.286     0.071    0.00000    
     0.286     0.143    0.00000    
     0.286     0.214    0.00000    
     0.286     0.286    0.00000    
     0.286     0.357    0.00000    
     0.286     0.429    0.00000    
     0.286     0.500    0.00000    
     0.286     0.571    0.00000    
     0.286     0.643    0.00000    
     0.286     0.714    0.00000    
     0.286     0.786    0.00000    
     0.286     0.857    0.00000    
     0.286     0.929    0.00000    
     0.286     1.000    0.00000    
     0.357     0.000   0.150690-320
     0.357     0.071   0.212200-313
     0.357     0.143    0.00000    
     0.357     0.214   0.513828-321
     0.357     0.286            NaN
     0.357     0.357    0.00000    
     0.357     0.429    0.00000    
     0.357     0.500            NaN
     0.357     0.571    0.00000    
     0.357     0.643    0.00000    
     0.357     0.714            NaN
     0.357     0.786    0.00000    
     0.357     0.857    0.00000    
     0.357     0.929            NaN
     0.357     1.000    0.00000    
     0.429     0.000    0.00000    
     0.429     0.071            NaN
     0.429     0.143    0.00000    
     0.429     0.214    0.00000    
     0.429     0.286            NaN
     0.429     0.357    0.00000    
     0.429     0.429    0.00000    
     0.429     0.500            NaN
     0.429     0.571    0.00000    
     0.429     0.643    0.00000    
     0.429     0.714            NaN
     0.429     0.786    0.00000    
     0.429     0.857    0.00000    
     0.429     0.929            NaN
     0.429     1.000    0.00000    
     0.500     0.000    0.00000    
     0.500     0.071            NaN
     0.500     0.143    0.00000    
     0.500     0.214    0.00000    
     0.500     0.286            NaN
     0.500     0.357    0.00000    
     0.500     0.429    0.00000    
     0.500     0.500    0.00000    
     0.500     0.571   0.158595-320
     0.500     0.643    0.00000    
     0.500     0.714   0.695333-309
     0.500     0.786   0.139067-308
     0.500     0.857   0.177864-320
     0.500     0.929    0.00000    
     0.500     1.000   0.177864-320
     0.571     0.000    0.00000    
     0.571     0.071   0.177864-320
     0.571     0.143   0.222330-321
     0.571     0.214   0.395253-322
     0.571     0.286    0.00000    
     0.571     0.357    0.00000    
     0.571     0.429    0.00000    
     0.571     0.500    0.00000    
     0.571     0.571    0.00000    
     0.571     0.643    0.00000    
     0.571     0.714    0.00000    
     0.571     0.786    0.00000    
     0.571     0.857    0.00000    
     0.571     0.929    0.00000    
     0.571     1.000    0.00000    
     0.643     0.000    0.00000    
     0.643     0.071    0.00000    
     0.643     0.143    0.00000    
     0.643     0.214    0.00000    
     0.643     0.286            NaN
     0.643     0.357    0.00000    
     0.643     0.429    0.00000    
     0.643     0.500    0.00000    
     0.643     0.571    0.00000    
     0.643     0.643    0.00000    
     0.643     0.714    0.00000    
     0.643     0.786    0.00000    
     0.643     0.857    0.00000    
     0.643     0.929    0.00000    
     0.643     1.000    0.00000    
     0.714     0.000    0.00000    
     0.714     0.071    0.00000    
     0.714     0.143    0.00000    
     0.714     0.214   0.716395-321
     0.714     0.286   0.695333-309
     0.714     0.357   0.695333-309
     0.714     0.429   0.237152-320
     0.714     0.500    0.00000    
     0.714     0.571    0.00000    
     0.714     0.643    0.00000    
     0.714     0.714    0.00000    
     0.714     0.786    0.00000    
     0.714     0.857    0.00000    
     0.714     0.929    0.00000    
     0.714     1.000    0.00000    
     0.786     0.000    0.00000    
     0.786     0.071    0.00000    
     0.786     0.143    0.00000    
     0.786     0.214    0.00000    
     0.786     0.286    0.00000    
     0.786     0.357    0.00000    
     0.786     0.429   0.158595-320
     0.786     0.500   0.690011-309
     0.786     0.571   0.494066-323
     0.786     0.643   0.139067-308
     0.786     0.714   0.237152-320
     0.786     0.786    0.00000    
     0.786     0.857   0.237152-320
     0.786     0.929    0.00000    
     0.786     1.000   0.296439-320
     0.857     0.000   0.296439-321
     0.857     0.071   0.395253-322
     0.857     0.143    0.00000    
     0.857     0.214    0.00000    
     0.857     0.286    0.00000    
     0.857     0.357    0.00000    
     0.857     0.429    0.00000    
     0.857     0.500    0.00000    
     0.857     0.571    0.00000    
     0.857     0.643    0.00000    
     0.857     0.714   0.988131-323
     0.857     0.786   0.494066-323
     0.857     0.857   0.695333-309
     0.857     0.929   0.148220-322
     0.857     1.000   0.494066-323
     0.929     0.000   0.695333-309
     0.929     0.071    0.00000    
     0.929     0.143   0.159150-311
     0.929     0.214    0.00000    
     0.929     0.286   0.695333-309
     0.929     0.357    0.00000    
     0.929     0.429    0.00000    
     0.929     0.500    0.00000    
     0.929     0.571    0.00000    
     0.929     0.643    0.00000    
     0.929     0.714    0.00000    
     0.929     0.786    0.00000    
     0.929     0.857    0.00000    
     0.929     0.929    0.00000    
     0.929     1.000    0.00000    
     1.000     0.000    0.00000    
     1.000     0.071   0.400193-321
     1.000     0.143   0.212254-313
     1.000     0.214   0.296439-321
     1.000     0.286   0.237152-320
     1.000     0.357    0.00000    
     1.000     0.429   0.212203-313
     1.000     0.500    0.00000    
     1.000     0.571   0.237152-320
     1.000     0.643    0.00000    
     1.000     0.714    0.00000    
     1.000     0.786   0.558294-321
     1.000     0.857   0.254639-312
     1.000     0.929   0.296439-321
     1.000     1.000   0.395253-322
