Title="Temperature Data"
Variables="X","Y","T"
 
Zone I=   128, J=   128, F=POINT
     0.000     0.000    0.00000    
     0.000     0.008    0.00000    
     0.000     0.016    0.00000    
     0.000     0.024    0.00000    
     0.000     0.031    0.00000    
     0.000     0.039    0.00000    
     0.000     0.047    0.00000    
     0.000     0.055    0.00000    
     0.000     0.063    0.00000    
     0.000     0.071    0.00000    
     0.000     0.079    0.00000    
     0.000     0.087    0.00000    
     0.000     0.094    0.00000    
     0.000     0.102    0.00000    
     0.000     0.110    0.00000    
     0.000     0.118    0.00000    
     0.000     0.126    0.00000    
     0.000     0.134    0.00000    
     0.000     0.142    0.00000    
     0.000     0.150    0.00000    
     0.000     0.157    0.00000    
     0.000     0.165    0.00000    
     0.000     0.173    0.00000    
     0.000     0.181    0.00000    
     0.000     0.189    0.00000    
     0.000     0.197    0.00000    
     0.000     0.205    0.00000    
     0.000     0.213    0.00000    
     0.000     0.220    0.00000    
     0.000     0.228    0.00000    
     0.000     0.236    0.00000    
     0.000     0.244    0.00000    
     0.000     0.252    0.00000    
     0.000     0.260    0.00000    
     0.000     0.268    0.00000    
     0.000     0.276    0.00000    
     0.000     0.283    0.00000    
     0.000     0.291    0.00000    
     0.000     0.299    0.00000    
     0.000     0.307    0.00000    
     0.000     0.315    0.00000    
     0.000     0.323    0.00000    
     0.000     0.331    0.00000    
     0.000     0.339    0.00000    
     0.000     0.346    0.00000    
     0.000     0.354    0.00000    
     0.000     0.362    0.00000    
     0.000     0.370    0.00000    
     0.000     0.378    0.00000    
     0.000     0.386    0.00000    
     0.000     0.394    0.00000    
     0.000     0.402    0.00000    
     0.000     0.409    0.00000    
     0.000     0.417    0.00000    
     0.000     0.425    0.00000    
     0.000     0.433    0.00000    
     0.000     0.441    0.00000    
     0.000     0.449    0.00000    
     0.000     0.457    0.00000    
     0.000     0.465    0.00000    
     0.000     0.472    0.00000    
     0.000     0.480    0.00000    
     0.000     0.488    0.00000    
     0.000     0.496    0.00000    
     0.000     0.504    0.00000    
     0.000     0.512    0.00000    
     0.000     0.520    0.00000    
     0.000     0.528    0.00000    
     0.000     0.535    0.00000    
     0.000     0.543    0.00000    
     0.000     0.551    0.00000    
     0.000     0.559    0.00000    
     0.000     0.567    0.00000    
     0.000     0.575    0.00000    
     0.000     0.583    0.00000    
     0.000     0.591    0.00000    
     0.000     0.598    0.00000    
     0.000     0.606    0.00000    
     0.000     0.614    0.00000    
     0.000     0.622    0.00000    
     0.000     0.630    0.00000    
     0.000     0.638    0.00000    
     0.000     0.646    0.00000    
     0.000     0.654    0.00000    
     0.000     0.661    0.00000    
     0.000     0.669    0.00000    
     0.000     0.677    0.00000    
     0.000     0.685    0.00000    
     0.000     0.693    0.00000    
     0.000     0.701    0.00000    
     0.000     0.709    0.00000    
     0.000     0.717    0.00000    
     0.000     0.724    0.00000    
     0.000     0.732    0.00000    
     0.000     0.740    0.00000    
     0.000     0.748    0.00000    
     0.000     0.756    0.00000    
     0.000     0.764    0.00000    
     0.000     0.772    0.00000    
     0.000     0.780    0.00000    
     0.000     0.787    0.00000    
     0.000     0.795    0.00000    
     0.000     0.803    0.00000    
     0.000     0.811    0.00000    
     0.000     0.819    0.00000    
     0.000     0.827    0.00000    
     0.000     0.835    0.00000    
     0.000     0.843    0.00000    
     0.000     0.850    0.00000    
     0.000     0.858    0.00000    
     0.000     0.866    0.00000    
     0.000     0.874    0.00000    
     0.000     0.882    0.00000    
     0.000     0.890    0.00000    
     0.000     0.898    0.00000    
     0.000     0.906    0.00000    
     0.000     0.913    0.00000    
     0.000     0.921    0.00000    
     0.000     0.929    0.00000    
     0.000     0.937    0.00000    
     0.000     0.945    0.00000    
     0.000     0.953    0.00000    
     0.000     0.961    0.00000    
     0.000     0.969    0.00000    
     0.000     0.976    0.00000    
     0.000     0.984    0.00000    
     0.000     0.992    0.00000    
     0.000     1.000    0.00000    
     0.008     0.000   0.247344E-01
     0.008     0.008   0.241208E-01
     0.008     0.016   0.235220E-01
     0.008     0.024   0.229376E-01
     0.008     0.031   0.223673E-01
     0.008     0.039   0.218106E-01
     0.008     0.047   0.212674E-01
     0.008     0.055   0.207372E-01
     0.008     0.063   0.202198E-01
     0.008     0.071   0.197148E-01
     0.008     0.079   0.192220E-01
     0.008     0.087   0.187410E-01
     0.008     0.094   0.182715E-01
     0.008     0.102   0.178134E-01
     0.008     0.110   0.173662E-01
     0.008     0.118   0.169298E-01
     0.008     0.126   0.165039E-01
     0.008     0.134   0.160882E-01
     0.008     0.142   0.156826E-01
     0.008     0.150   0.152866E-01
     0.008     0.157   0.149002E-01
     0.008     0.165   0.145230E-01
     0.008     0.173   0.141550E-01
     0.008     0.181   0.137957E-01
     0.008     0.189   0.134451E-01
     0.008     0.197   0.131029E-01
     0.008     0.205   0.127689E-01
     0.008     0.213   0.124430E-01
     0.008     0.220   0.121249E-01
     0.008     0.228   0.118144E-01
     0.008     0.236   0.115114E-01
     0.008     0.244   0.112156E-01
     0.008     0.252   0.109270E-01
     0.008     0.260   0.106452E-01
     0.008     0.268   0.103703E-01
     0.008     0.276   0.101020E-01
     0.008     0.283   0.984012E-02
     0.008     0.291   0.958449E-02
     0.008     0.299   0.933507E-02
     0.008     0.307   0.909157E-02
     0.008     0.315   0.885399E-02
     0.008     0.323   0.862205E-02
     0.008     0.331   0.839574E-02
     0.008     0.339   0.817481E-02
     0.008     0.346   0.795924E-02
     0.008     0.354   0.774879E-02
     0.008     0.362   0.754345E-02
     0.008     0.370   0.734298E-02
     0.008     0.378   0.714738E-02
     0.008     0.386   0.695641E-02
     0.008     0.394   0.677009E-02
     0.008     0.402   0.658816E-02
     0.008     0.409   0.641067E-02
     0.008     0.417   0.623736E-02
     0.008     0.425   0.606827E-02
     0.008     0.433   0.590315E-02
     0.008     0.441   0.574205E-02
     0.008     0.449   0.558473E-02
     0.008     0.457   0.543125E-02
     0.008     0.465   0.528135E-02
     0.008     0.472   0.513510E-02
     0.008     0.480   0.499225E-02
     0.008     0.488   0.485288E-02
     0.008     0.496   0.471674E-02
     0.008     0.504   0.458391E-02
     0.008     0.512   0.445415E-02
     0.008     0.520   0.432753E-02
     0.008     0.528   0.420382E-02
     0.008     0.535   0.408310E-02
     0.008     0.543   0.396514E-02
     0.008     0.551   0.385002E-02
     0.008     0.559   0.373752E-02
     0.008     0.567   0.362771E-02
     0.008     0.575   0.352038E-02
     0.008     0.583   0.341561E-02
     0.008     0.591   0.331318E-02
     0.008     0.598   0.321318E-02
     0.008     0.606   0.311540E-02
     0.008     0.614   0.301991E-02
     0.008     0.622   0.292652E-02
     0.008     0.630   0.283530E-02
     0.008     0.638   0.274606E-02
     0.008     0.646   0.265887E-02
     0.008     0.654   0.257354E-02
     0.008     0.661   0.249016E-02
     0.008     0.669   0.240853E-02
     0.008     0.677   0.232873E-02
     0.008     0.685   0.225057E-02
     0.008     0.693   0.217414E-02
     0.008     0.701   0.209925E-02
     0.008     0.709   0.202598E-02
     0.008     0.717   0.195415E-02
     0.008     0.724   0.188384E-02
     0.008     0.732   0.181488E-02
     0.008     0.740   0.174734E-02
     0.008     0.748   0.168106E-02
     0.008     0.756   0.161609E-02
     0.008     0.764   0.155230E-02
     0.008     0.772   0.148973E-02
     0.008     0.780   0.142825E-02
     0.008     0.787   0.136790E-02
     0.008     0.795   0.130855E-02
     0.008     0.803   0.125025E-02
     0.008     0.811   0.119286E-02
     0.008     0.819   0.113643E-02
     0.008     0.827   0.108083E-02
     0.008     0.835   0.102611E-02
     0.008     0.843   0.972140E-03
     0.008     0.850   0.918963E-03
     0.008     0.858   0.866464E-03
     0.008     0.866   0.814673E-03
     0.008     0.874   0.763484E-03
     0.008     0.882   0.712921E-03
     0.008     0.890   0.662887E-03
     0.008     0.898   0.613398E-03
     0.008     0.906   0.564365E-03
     0.008     0.913   0.515797E-03
     0.008     0.921   0.467614E-03
     0.008     0.929   0.419817E-03
     0.008     0.937   0.372334E-03
     0.008     0.945   0.325159E-03
     0.008     0.953   0.278227E-03
     0.008     0.961   0.231526E-03
     0.008     0.969   0.184998E-03
     0.008     0.976   0.138623E-03
     0.008     0.984   0.923530E-04
     0.008     0.992   0.461592E-04
     0.008     1.000    0.00000    
     0.016     0.000   0.494537E-01
     0.016     0.008   0.482269E-01
     0.016     0.016   0.470296E-01
     0.016     0.024   0.458612E-01
     0.016     0.031   0.447208E-01
     0.016     0.039   0.436079E-01
     0.016     0.047   0.425218E-01
     0.016     0.055   0.414617E-01
     0.016     0.063   0.404272E-01
     0.016     0.071   0.394176E-01
     0.016     0.079   0.384321E-01
     0.016     0.087   0.374705E-01
     0.016     0.094   0.365319E-01
     0.016     0.102   0.356159E-01
     0.016     0.110   0.347218E-01
     0.016     0.118   0.338493E-01
     0.016     0.126   0.329977E-01
     0.016     0.134   0.321667E-01
     0.016     0.142   0.313555E-01
     0.016     0.150   0.305639E-01
     0.016     0.157   0.297912E-01
     0.016     0.165   0.290372E-01
     0.016     0.173   0.283012E-01
     0.016     0.181   0.275830E-01
     0.016     0.189   0.268819E-01
     0.016     0.197   0.261978E-01
     0.016     0.205   0.255300E-01
     0.016     0.213   0.248783E-01
     0.016     0.220   0.242422E-01
     0.016     0.228   0.236215E-01
     0.016     0.236   0.230156E-01
     0.016     0.244   0.224244E-01
     0.016     0.252   0.218472E-01
     0.016     0.260   0.212840E-01
     0.016     0.268   0.207343E-01
     0.016     0.276   0.201978E-01
     0.016     0.283   0.196742E-01
     0.016     0.291   0.191632E-01
     0.016     0.299   0.186644E-01
     0.016     0.307   0.181776E-01
     0.016     0.315   0.177025E-01
     0.016     0.323   0.172389E-01
     0.016     0.331   0.167863E-01
     0.016     0.339   0.163447E-01
     0.016     0.346   0.159135E-01
     0.016     0.354   0.154929E-01
     0.016     0.362   0.150822E-01
     0.016     0.370   0.146815E-01
     0.016     0.378   0.142903E-01
     0.016     0.386   0.139086E-01
     0.016     0.394   0.135360E-01
     0.016     0.402   0.131724E-01
     0.016     0.409   0.128173E-01
     0.016     0.417   0.124710E-01
     0.016     0.425   0.121327E-01
     0.016     0.433   0.118028E-01
     0.016     0.441   0.114805E-01
     0.016     0.449   0.111661E-01
     0.016     0.457   0.108591E-01
     0.016     0.465   0.105595E-01
     0.016     0.472   0.102670E-01
     0.016     0.480   0.998152E-02
     0.016     0.488   0.970271E-02
     0.016     0.496   0.943068E-02
     0.016     0.504   0.916494E-02
     0.016     0.512   0.890564E-02
     0.016     0.520   0.865233E-02
     0.016     0.528   0.840514E-02
     0.016     0.535   0.816362E-02
     0.016     0.543   0.792793E-02
     0.016     0.551   0.769761E-02
     0.016     0.559   0.747282E-02
     0.016     0.567   0.725312E-02
     0.016     0.575   0.703868E-02
     0.016     0.583   0.682905E-02
     0.016     0.591   0.662441E-02
     0.016     0.598   0.642432E-02
     0.016     0.606   0.622896E-02
     0.016     0.614   0.603790E-02
     0.016     0.622   0.585131E-02
     0.016     0.630   0.566879E-02
     0.016     0.638   0.549050E-02
     0.016     0.646   0.531604E-02
     0.016     0.654   0.514558E-02
     0.016     0.661   0.497873E-02
     0.016     0.669   0.481565E-02
     0.016     0.677   0.465597E-02
     0.016     0.685   0.449983E-02
     0.016     0.693   0.434688E-02
     0.016     0.701   0.419727E-02
     0.016     0.709   0.405065E-02
     0.016     0.717   0.390717E-02
     0.016     0.724   0.376647E-02
     0.016     0.732   0.362871E-02
     0.016     0.740   0.349356E-02
     0.016     0.748   0.336114E-02
     0.016     0.756   0.323115E-02
     0.016     0.764   0.310370E-02
     0.016     0.772   0.297851E-02
     0.016     0.780   0.285567E-02
     0.016     0.787   0.273492E-02
     0.016     0.795   0.261634E-02
     0.016     0.803   0.249968E-02
     0.016     0.811   0.238502E-02
     0.016     0.819   0.227211E-02
     0.016     0.827   0.216104E-02
     0.016     0.835   0.205155E-02
     0.016     0.843   0.194372E-02
     0.016     0.850   0.183733E-02
     0.016     0.858   0.173243E-02
     0.016     0.866   0.162882E-02
     0.016     0.874   0.152653E-02
     0.016     0.882   0.142538E-02
     0.016     0.890   0.132539E-02
     0.016     0.898   0.122640E-02
     0.016     0.906   0.112841E-02
     0.016     0.913   0.103126E-02
     0.016     0.921   0.934961E-03
     0.016     0.929   0.839361E-03
     0.016     0.937   0.744455E-03
     0.016     0.945   0.650106E-03
     0.016     0.953   0.556295E-03
     0.016     0.961   0.462901E-03
     0.016     0.969   0.369890E-03
     0.016     0.976   0.277157E-03
     0.016     0.984   0.184653E-03
     0.016     0.992   0.922883E-04
     0.016     1.000    0.00000    
     0.024     0.000   0.741428E-01
     0.024     0.008   0.723035E-01
     0.024     0.016   0.705085E-01
     0.024     0.024   0.687567E-01
     0.024     0.031   0.670470E-01
     0.024     0.039   0.653785E-01
     0.024     0.047   0.637501E-01
     0.024     0.055   0.621609E-01
     0.024     0.063   0.606099E-01
     0.024     0.071   0.590962E-01
     0.024     0.079   0.576189E-01
     0.024     0.087   0.561770E-01
     0.024     0.094   0.547699E-01
     0.024     0.102   0.533965E-01
     0.024     0.110   0.520562E-01
     0.024     0.118   0.507481E-01
     0.024     0.126   0.494714E-01
     0.024     0.134   0.482254E-01
     0.024     0.142   0.470093E-01
     0.024     0.150   0.458224E-01
     0.024     0.157   0.446641E-01
     0.024     0.165   0.435335E-01
     0.024     0.173   0.424302E-01
     0.024     0.181   0.413533E-01
     0.024     0.189   0.403024E-01
     0.024     0.197   0.392766E-01
     0.024     0.205   0.382755E-01
     0.024     0.213   0.372984E-01
     0.024     0.220   0.363449E-01
     0.024     0.228   0.354141E-01
     0.024     0.236   0.345059E-01
     0.024     0.244   0.336193E-01
     0.024     0.252   0.327542E-01
     0.024     0.260   0.319097E-01
     0.024     0.268   0.310856E-01
     0.024     0.276   0.302812E-01
     0.024     0.283   0.294963E-01
     0.024     0.291   0.287300E-01
     0.024     0.299   0.279824E-01
     0.024     0.307   0.272525E-01
     0.024     0.315   0.265403E-01
     0.024     0.323   0.258450E-01
     0.024     0.331   0.251667E-01
     0.024     0.339   0.245044E-01
     0.024     0.346   0.238582E-01
     0.024     0.354   0.232274E-01
     0.024     0.362   0.226119E-01
     0.024     0.370   0.220110E-01
     0.024     0.378   0.214247E-01
     0.024     0.386   0.208522E-01
     0.024     0.394   0.202937E-01
     0.024     0.402   0.197484E-01
     0.024     0.409   0.192163E-01
     0.024     0.417   0.186968E-01
     0.024     0.425   0.181899E-01
     0.024     0.433   0.176950E-01
     0.024     0.441   0.172121E-01
     0.024     0.449   0.167405E-01
     0.024     0.457   0.162805E-01
     0.024     0.465   0.158311E-01
     0.024     0.472   0.153927E-01
     0.024     0.480   0.149645E-01
     0.024     0.488   0.145468E-01
     0.024     0.496   0.141387E-01
     0.024     0.504   0.137405E-01
     0.024     0.512   0.133515E-01
     0.024     0.520   0.129720E-01
     0.024     0.528   0.126012E-01
     0.024     0.535   0.122393E-01
     0.024     0.543   0.118857E-01
     0.024     0.551   0.115406E-01
     0.024     0.559   0.112034E-01
     0.024     0.567   0.108743E-01
     0.024     0.575   0.105525E-01
     0.024     0.583   0.102385E-01
     0.024     0.591   0.993144E-02
     0.024     0.598   0.963168E-02
     0.024     0.606   0.933856E-02
     0.024     0.614   0.905234E-02
     0.024     0.622   0.877239E-02
     0.024     0.630   0.849896E-02
     0.024     0.638   0.823145E-02
     0.024     0.646   0.797010E-02
     0.024     0.654   0.771434E-02
     0.024     0.661   0.746439E-02
     0.024     0.669   0.721969E-02
     0.024     0.677   0.698048E-02
     0.024     0.685   0.674621E-02
     0.024     0.693   0.651709E-02
     0.024     0.701   0.629261E-02
     0.024     0.709   0.607297E-02
     0.024     0.717   0.585767E-02
     0.024     0.724   0.564691E-02
     0.024     0.732   0.544021E-02
     0.024     0.740   0.523775E-02
     0.024     0.748   0.503906E-02
     0.024     0.756   0.484433E-02
     0.024     0.764   0.465310E-02
     0.024     0.772   0.446556E-02
     0.024     0.780   0.428125E-02
     0.024     0.787   0.410036E-02
     0.024     0.795   0.392245E-02
     0.024     0.803   0.374768E-02
     0.024     0.811   0.357565E-02
     0.024     0.819   0.340649E-02
     0.024     0.827   0.323984E-02
     0.024     0.835   0.307581E-02
     0.024     0.843   0.291404E-02
     0.024     0.850   0.275464E-02
     0.024     0.858   0.259727E-02
     0.024     0.866   0.244202E-02
     0.024     0.874   0.228858E-02
     0.024     0.882   0.213702E-02
     0.024     0.890   0.198704E-02
     0.024     0.898   0.183869E-02
     0.024     0.906   0.169171E-02
     0.024     0.913   0.154613E-02
     0.024     0.921   0.140170E-02
     0.024     0.929   0.125842E-02
     0.024     0.937   0.111609E-02
     0.024     0.945   0.974681E-03
     0.024     0.953   0.834000E-03
     0.024     0.961   0.694011E-03
     0.024     0.969   0.554541E-03
     0.024     0.976   0.415531E-03
     0.024     0.984   0.276833E-03
     0.024     0.992   0.138365E-03
     0.024     1.000    0.00000    
     0.031     0.000   0.987864E-01
     0.031     0.008   0.963358E-01
     0.031     0.016   0.939442E-01
     0.031     0.024   0.916101E-01
     0.031     0.031   0.893322E-01
     0.031     0.039   0.871091E-01
     0.031     0.047   0.849395E-01
     0.031     0.055   0.828220E-01
     0.031     0.063   0.807555E-01
     0.031     0.071   0.787386E-01
     0.031     0.079   0.767702E-01
     0.031     0.087   0.748492E-01
     0.031     0.094   0.729743E-01
     0.031     0.102   0.711446E-01
     0.031     0.110   0.693587E-01
     0.031     0.118   0.676158E-01
     0.031     0.126   0.659147E-01
     0.031     0.134   0.642546E-01
     0.031     0.142   0.626343E-01
     0.031     0.150   0.610530E-01
     0.031     0.157   0.595096E-01
     0.031     0.165   0.580034E-01
     0.031     0.173   0.565332E-01
     0.031     0.181   0.550985E-01
     0.031     0.189   0.536981E-01
     0.031     0.197   0.523315E-01
     0.031     0.205   0.509975E-01
     0.031     0.213   0.496958E-01
     0.031     0.220   0.484252E-01
     0.031     0.228   0.471853E-01
     0.031     0.236   0.459749E-01
     0.031     0.244   0.447939E-01
     0.031     0.252   0.436410E-01
     0.031     0.260   0.425160E-01
     0.031     0.268   0.414178E-01
     0.031     0.276   0.403462E-01
     0.031     0.283   0.393002E-01
     0.031     0.291   0.382795E-01
     0.031     0.299   0.372830E-01
     0.031     0.307   0.363108E-01
     0.031     0.315   0.353617E-01
     0.031     0.323   0.344356E-01
     0.031     0.331   0.335315E-01
     0.031     0.339   0.326494E-01
     0.031     0.346   0.317881E-01
     0.031     0.354   0.309479E-01
     0.031     0.362   0.301275E-01
     0.031     0.370   0.293271E-01
     0.031     0.378   0.285457E-01
     0.031     0.386   0.277832E-01
     0.031     0.394   0.270388E-01
     0.031     0.402   0.263125E-01
     0.031     0.409   0.256033E-01
     0.031     0.417   0.249114E-01
     0.031     0.425   0.242358E-01
     0.031     0.433   0.235766E-01
     0.031     0.441   0.229329E-01
     0.031     0.449   0.223049E-01
     0.031     0.457   0.216916E-01
     0.031     0.465   0.210932E-01
     0.031     0.472   0.205088E-01
     0.031     0.480   0.199386E-01
     0.031     0.488   0.193817E-01
     0.031     0.496   0.188383E-01
     0.031     0.504   0.183074E-01
     0.031     0.512   0.177895E-01
     0.031     0.520   0.172835E-01
     0.031     0.528   0.167897E-01
     0.031     0.535   0.163073E-01
     0.031     0.543   0.158365E-01
     0.031     0.551   0.153764E-01
     0.031     0.559   0.149274E-01
     0.031     0.567   0.144885E-01
     0.031     0.575   0.140601E-01
     0.031     0.583   0.136414E-01
     0.031     0.591   0.132326E-01
     0.031     0.598   0.128329E-01
     0.031     0.606   0.124427E-01
     0.031     0.614   0.120610E-01
     0.031     0.622   0.116883E-01
     0.031     0.630   0.113237E-01
     0.031     0.638   0.109676E-01
     0.031     0.646   0.106191E-01
     0.031     0.654   0.102786E-01
     0.031     0.661   0.994528E-02
     0.031     0.669   0.961952E-02
     0.031     0.677   0.930054E-02
     0.031     0.685   0.898865E-02
     0.031     0.693   0.868313E-02
     0.031     0.701   0.838428E-02
     0.031     0.709   0.809140E-02
     0.031     0.717   0.780477E-02
     0.031     0.724   0.752373E-02
     0.031     0.732   0.724854E-02
     0.031     0.740   0.697856E-02
     0.031     0.748   0.671405E-02
     0.031     0.756   0.645439E-02
     0.031     0.764   0.619981E-02
     0.031     0.772   0.594972E-02
     0.031     0.780   0.570436E-02
     0.031     0.787   0.546314E-02
     0.031     0.795   0.522629E-02
     0.031     0.803   0.499325E-02
     0.031     0.811   0.476421E-02
     0.031     0.819   0.453867E-02
     0.031     0.827   0.431678E-02
     0.031     0.835   0.409807E-02
     0.031     0.843   0.388269E-02
     0.031     0.850   0.367016E-02
     0.031     0.858   0.346062E-02
     0.031     0.866   0.325365E-02
     0.031     0.874   0.304933E-02
     0.031     0.882   0.284727E-02
     0.031     0.890   0.264755E-02
     0.031     0.898   0.244979E-02
     0.031     0.906   0.225405E-02
     0.031     0.913   0.205999E-02
     0.031     0.921   0.186763E-02
     0.031     0.929   0.167667E-02
     0.031     0.937   0.148709E-02
     0.031     0.945   0.129862E-02
     0.031     0.953   0.111123E-02
     0.031     0.961   0.924668E-03
     0.031     0.969   0.738875E-03
     0.031     0.976   0.553635E-03
     0.031     0.984   0.368855E-03
     0.031     0.992   0.184351E-03
     0.031     1.000    0.00000    
     0.039     0.000   0.123370    
     0.039     0.008   0.120309    
     0.039     0.016   0.117322    
     0.039     0.024   0.114408    
     0.039     0.031   0.111563    
     0.039     0.039   0.108786    
     0.039     0.047   0.106077    
     0.039     0.055   0.103432    
     0.039     0.063   0.100852    
     0.039     0.071   0.983329E-01
     0.039     0.079   0.958747E-01
     0.039     0.087   0.934756E-01
     0.039     0.094   0.911342E-01
     0.039     0.102   0.888490E-01
     0.039     0.110   0.866188E-01
     0.039     0.118   0.844421E-01
     0.039     0.126   0.823178E-01
     0.039     0.134   0.802445E-01
     0.039     0.142   0.782210E-01
     0.039     0.150   0.762461E-01
     0.039     0.157   0.743187E-01
     0.039     0.165   0.724375E-01
     0.039     0.173   0.706017E-01
     0.039     0.181   0.688097E-01
     0.039     0.189   0.670611E-01
     0.039     0.197   0.653542E-01
     0.039     0.205   0.636885E-01
     0.039     0.213   0.620626E-01
     0.039     0.220   0.604760E-01
     0.039     0.228   0.589273E-01
     0.039     0.236   0.574160E-01
     0.039     0.244   0.559408E-01
     0.039     0.252   0.545013E-01
     0.039     0.260   0.530960E-01
     0.039     0.268   0.517249E-01
     0.039     0.276   0.503863E-01
     0.039     0.283   0.490802E-01
     0.039     0.291   0.478052E-01
     0.039     0.299   0.465612E-01
     0.039     0.307   0.453467E-01
     0.039     0.315   0.441617E-01
     0.039     0.323   0.430048E-01
     0.039     0.331   0.418760E-01
     0.039     0.339   0.407740E-01
     0.039     0.346   0.396989E-01
     0.039     0.354   0.386492E-01
     0.039     0.362   0.376250E-01
     0.039     0.370   0.366251E-01
     0.039     0.378   0.356495E-01
     0.039     0.386   0.346970E-01
     0.039     0.394   0.337676E-01
     0.039     0.402   0.328602E-01
     0.039     0.409   0.319749E-01
     0.039     0.417   0.311105E-01
     0.039     0.425   0.302671E-01
     0.039     0.433   0.294435E-01
     0.039     0.441   0.286400E-01
     0.039     0.449   0.278554E-01
     0.039     0.457   0.270898E-01
     0.039     0.465   0.263421E-01
     0.039     0.472   0.256127E-01
     0.039     0.480   0.249002E-01
     0.039     0.488   0.242050E-01
     0.039     0.496   0.235260E-01
     0.039     0.504   0.228635E-01
     0.039     0.512   0.222163E-01
     0.039     0.520   0.215847E-01
     0.039     0.528   0.209677E-01
     0.039     0.535   0.203656E-01
     0.039     0.543   0.197772E-01
     0.039     0.551   0.192030E-01
     0.039     0.559   0.186419E-01
     0.039     0.567   0.180942E-01
     0.039     0.575   0.175588E-01
     0.039     0.583   0.170363E-01
     0.039     0.591   0.165254E-01
     0.039     0.598   0.160266E-01
     0.039     0.606   0.155389E-01
     0.039     0.614   0.150626E-01
     0.039     0.622   0.145968E-01
     0.039     0.630   0.141418E-01
     0.039     0.638   0.136967E-01
     0.039     0.646   0.132618E-01
     0.039     0.654   0.128363E-01
     0.039     0.661   0.124204E-01
     0.039     0.669   0.120132E-01
     0.039     0.677   0.116152E-01
     0.039     0.685   0.112253E-01
     0.039     0.693   0.108441E-01
     0.039     0.701   0.104706E-01
     0.039     0.709   0.101051E-01
     0.039     0.717   0.974686E-02
     0.039     0.724   0.939617E-02
     0.039     0.732   0.905222E-02
     0.039     0.740   0.871533E-02
     0.039     0.748   0.838472E-02
     0.039     0.756   0.806071E-02
     0.039     0.764   0.774252E-02
     0.039     0.772   0.743045E-02
     0.039     0.780   0.712378E-02
     0.039     0.787   0.682278E-02
     0.039     0.795   0.652674E-02
     0.039     0.803   0.623594E-02
     0.039     0.811   0.594969E-02
     0.039     0.819   0.566823E-02
     0.039     0.827   0.539093E-02
     0.039     0.835   0.511798E-02
     0.039     0.843   0.484881E-02
     0.039     0.850   0.458357E-02
     0.039     0.858   0.432173E-02
     0.039     0.866   0.406340E-02
     0.039     0.874   0.380808E-02
     0.039     0.882   0.355589E-02
     0.039     0.890   0.330633E-02
     0.039     0.898   0.305949E-02
     0.039     0.906   0.281492E-02
     0.039     0.913   0.257268E-02
     0.039     0.921   0.233235E-02
     0.039     0.929   0.209395E-02
     0.039     0.937   0.185712E-02
     0.039     0.945   0.162182E-02
     0.039     0.953   0.138773E-02
     0.039     0.961   0.115480E-02
     0.039     0.969   0.922727E-03
     0.039     0.976   0.691422E-03
     0.039     0.984   0.460636E-03
     0.039     0.992   0.230231E-03
     0.039     1.000    0.00000    
     0.047     0.000   0.147877    
     0.047     0.008   0.144209    
     0.047     0.016   0.140629    
     0.047     0.024   0.137135    
     0.047     0.031   0.133725    
     0.047     0.039   0.130397    
     0.047     0.047   0.127149    
     0.047     0.055   0.123980    
     0.047     0.063   0.120886    
     0.047     0.071   0.117867    
     0.047     0.079   0.114920    
     0.047     0.087   0.112045    
     0.047     0.094   0.109238    
     0.047     0.102   0.106499    
     0.047     0.110   0.103826    
     0.047     0.118   0.101217    
     0.047     0.126   0.986704E-01
     0.047     0.134   0.961853E-01
     0.047     0.142   0.937598E-01
     0.047     0.150   0.913927E-01
     0.047     0.157   0.890823E-01
     0.047     0.165   0.868276E-01
     0.047     0.173   0.846268E-01
     0.047     0.181   0.824791E-01
     0.047     0.189   0.803828E-01
     0.047     0.197   0.783371E-01
     0.047     0.205   0.763403E-01
     0.047     0.213   0.743917E-01
     0.047     0.220   0.724896E-01
     0.047     0.228   0.706335E-01
     0.047     0.236   0.688217E-01
     0.047     0.244   0.670537E-01
     0.047     0.252   0.653279E-01
     0.047     0.260   0.636439E-01
     0.047     0.268   0.620000E-01
     0.047     0.276   0.603959E-01
     0.047     0.283   0.588300E-01
     0.047     0.291   0.573021E-01
     0.047     0.299   0.558105E-01
     0.047     0.307   0.543551E-01
     0.047     0.315   0.529343E-01
     0.047     0.323   0.515480E-01
     0.047     0.331   0.501946E-01
     0.047     0.339   0.488741E-01
     0.047     0.346   0.475850E-01
     0.047     0.354   0.463271E-01
     0.047     0.362   0.450991E-01
     0.047     0.370   0.439010E-01
     0.047     0.378   0.427312E-01
     0.047     0.386   0.415898E-01
     0.047     0.394   0.404755E-01
     0.047     0.402   0.393882E-01
     0.047     0.409   0.383266E-01
     0.047     0.417   0.372909E-01
     0.047     0.425   0.362795E-01
     0.047     0.433   0.352928E-01
     0.047     0.441   0.343292E-01
     0.047     0.449   0.333892E-01
     0.047     0.457   0.324711E-01
     0.047     0.465   0.315753E-01
     0.047     0.472   0.307005E-01
     0.047     0.480   0.298469E-01
     0.047     0.488   0.290132E-01