Title="Temperature Data"
Variables="X","Y","T"
 
Zone I=    50, J=    50, F=POINT
     0.000     0.000    0.00000    
     0.000     0.020    0.00000    
     0.000     0.041    0.00000    
     0.000     0.061    0.00000    
     0.000     0.082    0.00000    
     0.000     0.102    0.00000    
     0.000     0.122    0.00000    
     0.000     0.143    0.00000    
     0.000     0.163    0.00000    
     0.000     0.184    0.00000    
     0.000     0.204    0.00000    
     0.000     0.224    0.00000    
     0.000     0.245    0.00000    
     0.000     0.265    0.00000    
     0.000     0.286    0.00000    
     0.000     0.306    0.00000    
     0.000     0.327    0.00000    
     0.000     0.347    0.00000    
     0.000     0.367    0.00000    
     0.000     0.388    0.00000    
     0.000     0.408    0.00000    
     0.000     0.429    0.00000    
     0.000     0.449    0.00000    
     0.000     0.469    0.00000    
     0.000     0.490    0.00000    
     0.000     0.510    0.00000    
     0.000     0.531    0.00000    
     0.000     0.551    0.00000    
     0.000     0.571    0.00000    
     0.000     0.592    0.00000    
     0.000     0.612    0.00000    
     0.000     0.633    0.00000    
     0.000     0.653    0.00000    
     0.000     0.673    0.00000    
     0.000     0.694    0.00000    
     0.000     0.714    0.00000    
     0.000     0.735    0.00000    
     0.000     0.755    0.00000    
     0.000     0.776    0.00000    
     0.000     0.796    0.00000    
     0.000     0.816    0.00000    
     0.000     0.837    0.00000    
     0.000     0.857    0.00000    
     0.000     0.878    0.00000    
     0.000     0.898    0.00000    
     0.000     0.918    0.00000    
     0.000     0.939    0.00000    
     0.000     0.959    0.00000    
     0.000     0.980    0.00000    
     0.000     1.000    0.00000    
     0.020     0.000   0.640702E-01
     0.020     0.020   0.558145E-01
     0.020     0.041   0.479949E-01
     0.020     0.061   0.407606E-01
     0.020     0.082   0.342191E-01
     0.020     0.102   0.284290E-01
     0.020     0.122   0.234014E-01
     0.020     0.143   0.191093E-01
     0.020     0.163   0.154979E-01
     0.020     0.184   0.124965E-01
     0.020     0.204   0.100279E-01
     0.020     0.224   0.801472E-02
     0.020     0.245   0.638460E-02
     0.020     0.265   0.507223E-02
     0.020     0.286   0.402064E-02
     0.020     0.306   0.318122E-02
     0.020     0.327   0.251323E-02
     0.020     0.347   0.198298E-02
     0.020     0.367   0.156293E-02
     0.020     0.388   0.123071E-02
     0.020     0.408   0.968324E-03
     0.020     0.429   0.761311E-03
     0.020     0.449   0.598142E-03
     0.020     0.469   0.469629E-03
     0.020     0.490   0.368486E-03
     0.020     0.510   0.288931E-03
     0.020     0.531   0.226396E-03
     0.020     0.551   0.177264E-03
     0.020     0.571   0.138688E-03
     0.020     0.592   0.108415E-03
     0.020     0.612   0.846752E-04
     0.020     0.633   0.660682E-04
     0.020     0.653   0.514967E-04
     0.020     0.673   0.400922E-04
     0.020     0.694   0.311753E-04
     0.020     0.714   0.242080E-04
     0.020     0.735   0.187701E-04
     0.020     0.755   0.145287E-04
     0.020     0.776   0.112243E-04
     0.020     0.796   0.865091E-05
     0.020     0.816   0.664836E-05
     0.020     0.837   0.508911E-05
     0.020     0.857   0.387392E-05
     0.020     0.878   0.292339E-05
     0.020     0.898   0.217536E-05
     0.020     0.918   0.157943E-05
     0.020     0.939   0.109529E-05
     0.020     0.959   0.689185E-06
     0.020     0.980   0.332617E-06
     0.020     1.000    0.00000    
     0.041     0.000   0.127877    
     0.041     0.020   0.111193    
     0.041     0.041   0.954048E-01
     0.041     0.061   0.808285E-01
     0.041     0.082   0.676871E-01
     0.041     0.102   0.560956E-01
     0.041     0.122   0.460679E-01
     0.041     0.143   0.375382E-01
     0.041     0.163   0.303861E-01
     0.041     0.184   0.244608E-01
     0.041     0.204   0.196007E-01
     0.041     0.224   0.156469E-01
     0.041     0.245   0.124520E-01
     0.041     0.265   0.988422E-02
     0.041     0.286   0.782965E-02
     0.041     0.306   0.619155E-02
     0.041     0.327   0.488925E-02
     0.041     0.347   0.385630E-02
     0.041     0.367   0.303854E-02
     0.041     0.388   0.239211E-02
     0.041     0.408   0.188175E-02
     0.041     0.429   0.147924E-02
     0.041     0.449   0.116206E-02
     0.041     0.469   0.912305E-03
     0.041     0.490   0.715766E-03
     0.041     0.510   0.561204E-03
     0.041     0.531   0.439714E-03
     0.041     0.551   0.344279E-03
     0.041     0.571   0.269347E-03
     0.041     0.592   0.210551E-03
     0.041     0.612   0.164440E-03
     0.041     0.633   0.128306E-03
     0.041     0.653   0.100004E-03
     0.041     0.673   0.778584E-04
     0.041     0.694   0.605399E-04
     0.041     0.714   0.470109E-04
     0.041     0.735   0.364494E-04
     0.041     0.755   0.282140E-04
     0.041     0.776   0.217960E-04
     0.041     0.796   0.167996E-04
     0.041     0.816   0.129101E-04
     0.041     0.837   0.988280E-05
     0.041     0.857   0.752251E-05
     0.041     0.878   0.567709E-05
     0.041     0.898   0.422416E-05
     0.041     0.918   0.306719E-05
     0.041     0.939   0.212685E-05
     0.041     0.959   0.133837E-05
     0.041     0.980   0.645877E-06
     0.041     1.000    0.00000    
     0.061     0.000   0.191159    
     0.061     0.020   0.165676    
     0.061     0.041   0.141603    
     0.061     0.061   0.119462    
     0.061     0.082   0.996058E-01
     0.061     0.102   0.821988E-01
     0.061     0.122   0.672371E-01
     0.061     0.143   0.545903E-01
     0.061     0.163   0.440483E-01
     0.061     0.184   0.353608E-01
     0.061     0.204   0.282682E-01
     0.061     0.224   0.225213E-01
     0.061     0.245   0.178932E-01
     0.061     0.265   0.141841E-01
     0.061     0.286   0.112233E-01
     0.061     0.306   0.886715E-02
     0.061     0.327   0.699697E-02
     0.061     0.347   0.551548E-02
     0.061     0.367   0.434382E-02
     0.061     0.388   0.341841E-02
     0.061     0.408   0.268829E-02
     0.061     0.429   0.211274E-02
     0.061     0.449   0.165941E-02
     0.061     0.469   0.130256E-02
     0.061     0.490   0.102183E-02
     0.061     0.510   0.801091E-03
     0.061     0.531   0.627627E-03
     0.061     0.551   0.491373E-03
     0.061     0.571   0.384411E-03
     0.061     0.592   0.300483E-03
     0.061     0.612   0.234673E-03
     0.061     0.633   0.183098E-03
     0.061     0.653   0.142711E-03
     0.061     0.673   0.111103E-03
     0.061     0.694   0.863910E-04
     0.061     0.714   0.670825E-04
     0.061     0.735   0.520129E-04
     0.061     0.755   0.402593E-04
     0.061     0.776   0.311025E-04
     0.061     0.796   0.239716E-04
     0.061     0.816   0.184224E-04
     0.061     0.837   0.141017E-04
     0.061     0.857   0.107344E-04
     0.061     0.878   0.810055E-05
     0.061     0.898   0.602779E-05
     0.061     0.918   0.437649E-05
     0.061     0.939   0.303497E-05
     0.061     0.959   0.190968E-05
     0.061     0.980   0.921657E-06
     0.061     1.000    0.00000    
     0.082     0.000   0.253655    
     0.082     0.020   0.218749    
     0.082     0.041   0.185869    
     0.082     0.061   0.155811    
     0.082     0.082   0.129076    
     0.082     0.102   0.105858    
     0.082     0.122   0.860921E-01
     0.082     0.143   0.695387E-01
     0.082     0.163   0.558570E-01
     0.082     0.184   0.446672E-01
     0.082     0.204   0.355913E-01
     0.082     0.224   0.282785E-01
     0.082     0.245   0.224167E-01
     0.082     0.265   0.177372E-01
     0.082     0.286   0.140137E-01
     0.082     0.306   0.110584E-01
     0.082     0.327   0.871749E-02
     0.082     0.347   0.686632E-02
     0.082     0.367   0.540430E-02
     0.082     0.388   0.425083E-02
     0.082     0.408   0.334156E-02
     0.082     0.429   0.262533E-02
     0.082     0.449   0.206148E-02
     0.082     0.469   0.161784E-02
     0.082     0.490   0.126895E-02
     0.082     0.510   0.994710E-03
     0.082     0.531   0.779235E-03
     0.082     0.551   0.610025E-03
     0.082     0.571   0.477199E-03
     0.082     0.592   0.372998E-03
     0.082     0.612   0.291291E-03
     0.082     0.633   0.227269E-03
     0.082     0.653   0.177130E-03
     0.082     0.673   0.137900E-03
     0.082     0.694   0.107223E-03
     0.082     0.714   0.832599E-04
     0.082     0.735   0.645535E-04
     0.082     0.755   0.499674E-04
     0.082     0.776   0.386007E-04
     0.082     0.796   0.297518E-04
     0.082     0.816   0.228634E-04
     0.082     0.837   0.175020E-04
     0.082     0.857   0.133220E-04
     0.082     0.878   0.100538E-04
     0.082     0.898   0.748073E-05
     0.082     0.918   0.543178E-05
     0.082     0.939   0.376650E-05
     0.082     0.959   0.237016E-05
     0.082     0.980   0.114380E-05
     0.082     1.000    0.00000    
     0.102     0.000   0.315108    
     0.102     0.020   0.269798    
     0.102     0.041   0.227314    
     0.102     0.061   0.188836    
     0.102     0.082   0.155031    
     0.102     0.102   0.126065    
     0.102     0.122   0.101736    
     0.102     0.143   0.816168E-01
     0.102     0.163   0.651754E-01
     0.102     0.184   0.518611E-01
     0.102     0.204   0.411532E-01
     0.102     0.224   0.325863E-01
     0.102     0.245   0.257597E-01
     0.102     0.265   0.203363E-01
     0.102     0.286   0.160378E-01
     0.102     0.306   0.126370E-01
     0.102     0.327   0.995019E-02
     0.102     0.347   0.782985E-02
     0.102     0.367   0.615803E-02
     0.102     0.388   0.484077E-02
     0.102     0.408   0.380350E-02
     0.102     0.429   0.298711E-02
     0.102     0.449   0.234485E-02
     0.102     0.469   0.183978E-02
     0.102     0.490   0.144276E-02
     0.102     0.510   0.113078E-02
     0.102     0.531   0.885730E-03
     0.102     0.551   0.693321E-03
     0.102     0.571   0.542323E-03
     0.102     0.592   0.423871E-03
     0.102     0.612   0.331009E-03
     0.102     0.633   0.258243E-03
     0.102     0.653   0.201269E-03
     0.102     0.673   0.156685E-03
     0.102     0.694   0.121830E-03
     0.102     0.714   0.945984E-04
     0.102     0.735   0.733459E-04
     0.102     0.755   0.567706E-04
     0.102     0.776   0.438577E-04
     0.102     0.796   0.338020E-04
     0.102     0.816   0.259770E-04
     0.102     0.837   0.198843E-04
     0.102     0.857   0.151362E-04
     0.102     0.878   0.114222E-04
     0.102     0.898   0.849945E-05
     0.102     0.918   0.617103E-05
     0.102     0.939   0.427943E-05
     0.102     0.959   0.269272E-05
     0.102     0.980   0.129957E-05
     0.102     1.000    0.00000    
     0.122     0.000   0.375267    
     0.122     0.020   0.318022    
     0.122     0.041   0.264751    
     0.122     0.061   0.217191    
     0.122     0.082   0.176147    
     0.122     0.102   0.141636    
     0.122     0.122   0.113172    
     0.122     0.143   0.900182E-01
     0.122     0.163   0.713685E-01
     0.122     0.184   0.564506E-01
     0.122     0.204   0.445759E-01
     0.122     0.224   0.351559E-01
     0.122     0.245   0.277015E-01
     0.122     0.265   0.218126E-01
     0.122     0.286   0.171663E-01
     0.122     0.306   0.135037E-01
     0.122     0.327   0.106185E-01
     0.122     0.347   0.834697E-02
     0.122     0.367   0.655921E-02
     0.122     0.388   0.515270E-02
     0.122     0.408   0.404644E-02
     0.122     0.429   0.317657E-02
     0.122     0.449   0.249274E-02
     0.122     0.469   0.195530E-02
     0.122     0.490   0.153302E-02
     0.122     0.510   0.120133E-02
     0.122     0.531   0.940860E-03
     0.122     0.551   0.736405E-03
     0.122     0.571   0.575970E-03
     0.122     0.592   0.450145E-03
     0.122     0.612   0.351503E-03
     0.122     0.633   0.274225E-03
     0.122     0.653   0.213714E-03
     0.122     0.673   0.166373E-03
     0.122     0.694   0.129357E-03
     0.122     0.714   0.100444E-03
     0.122     0.735   0.778745E-04
     0.122     0.755   0.602773E-04
     0.122     0.776   0.465645E-04
     0.122     0.796   0.358895E-04
     0.122     0.816   0.275798E-04
     0.122     0.837   0.211122E-04
     0.122     0.857   0.160699E-04
     0.122     0.878   0.121275E-04
     0.122     0.898   0.902367E-05
     0.122     0.918   0.655209E-05
     0.122     0.939   0.454334E-05
     0.122     0.959   0.285900E-05
     0.122     0.980   0.137971E-05
     0.122     1.000    0.00000    
     0.143     0.000   0.433884    
     0.143     0.020   0.362271    
     0.143     0.041   0.296479    
     0.143     0.061   0.239031    
     0.143     0.082   0.190730    
     0.143     0.102   0.151162    
     0.143     0.122   0.119299    
     0.143     0.143   0.939172E-01
     0.143     0.163   0.738315E-01
     0.143     0.184   0.579987E-01
     0.143     0.204   0.455458E-01
     0.143     0.224   0.357622E-01
     0.143     0.245   0.280799E-01
     0.143     0.265   0.220486E-01
     0.143     0.286   0.173133E-01
     0.143     0.306   0.135953E-01
     0.143     0.327   0.106756E-01
     0.143     0.347   0.838248E-02
     0.143     0.367   0.658132E-02
     0.143     0.388   0.516646E-02
     0.143     0.408   0.405501E-02
     0.143     0.429   0.318190E-02
     0.143     0.449   0.249606E-02
     0.143     0.469   0.195737E-02
     0.143     0.490   0.153431E-02
     0.143     0.510   0.120213E-02
     0.143     0.531   0.941362E-03
     0.143     0.551   0.736711E-03
     0.143     0.571   0.576166E-03
     0.143     0.592   0.450262E-03
     0.143     0.612   0.351580E-03
     0.143     0.633   0.274269E-03
     0.143     0.653   0.213745E-03
     0.143     0.673   0.166389E-03
     0.143     0.694   0.129370E-03
     0.143     0.714   0.100449E-03
     0.143     0.735   0.778801E-04
     0.143     0.755   0.602788E-04
     0.143     0.776   0.465672E-04
     0.143     0.796   0.358897E-04
     0.143     0.816   0.275811E-04
     0.143     0.837   0.211121E-04
     0.143     0.857   0.160706E-04
     0.143     0.878   0.121273E-04
     0.143     0.898   0.902408E-05
     0.143     0.918   0.655191E-05
     0.143     0.939   0.454355E-05
     0.143     0.959   0.285891E-05
     0.143     0.980   0.137977E-05
     0.143     1.000    0.00000    
     0.163     0.000   0.490718    
     0.163     0.020   0.400701    
     0.163     0.041   0.319861    
     0.163     0.061   0.251727    
     0.163     0.082   0.196581    
     0.163     0.102   0.152985    
     0.163     0.122   0.118947    
     0.163     0.143   0.925214E-01
     0.163     0.163   0.720432E-01
     0.163     0.184   0.561691E-01
     0.163     0.204   0.438483E-01
     0.163     0.224   0.342694E-01
     0.163     0.245   0.268095E-01
     0.163     0.265   0.209907E-01
     0.163     0.286   0.164454E-01
     0.163     0.306   0.128909E-01
     0.163     0.327   0.101083E-01
     0.163     0.347   0.792828E-02
     0.163     0.367   0.621929E-02
     0.163     0.388   0.487891E-02
     0.163     0.408   0.382723E-02
     0.163     0.429   0.300189E-02
     0.163     0.449   0.235404E-02
     0.163     0.469   0.184551E-02
     0.163     0.490   0.144632E-02
     0.163     0.510   0.113300E-02
     0.163     0.531   0.887106E-03
     0.163     0.551   0.694184E-03
     0.163     0.571   0.542855E-03
     0.163     0.592   0.424207E-03
     0.163     0.612   0.331214E-03
     0.163     0.633   0.258374E-03
     0.163     0.653   0.201347E-03
     0.163     0.673   0.156737E-03
     0.163     0.694   0.121860E-03
     0.163     0.714   0.946192E-04
     0.163     0.735   0.733567E-04
     0.163     0.755   0.567792E-04
     0.163     0.776   0.438615E-04
     0.163     0.796   0.338057E-04
     0.163     0.816   0.259781E-04
     0.163     0.837   0.198860E-04
     0.163     0.857   0.151364E-04
     0.163     0.878   0.114230E-04
     0.163     0.898   0.849942E-05
     0.163     0.918   0.617142E-05
     0.163     0.939   0.427936E-05
     0.163     0.959   0.269289E-05
     0.163     0.980   0.129954E-05
     0.163     1.000    0.00000    
     0.184     0.000   0.545535    
     0.184     0.020   0.429955    
     0.184     0.041   0.330538    
     0.184     0.061   0.251435    
     0.184     0.082   0.190882    
     0.184     0.102   0.145251    
     0.184     0.122   0.110983    
     0.184     0.143   0.851801E-01
     0.184     0.163   0.656523E-01
     0.184     0.184   0.507880E-01
     0.184     0.204   0.394107E-01
     0.184     0.224   0.306596E-01
     0.184     0.245   0.239003E-01
     0.184     0.265   0.186612E-01
     0.184     0.286   0.145891E-01
     0.184     0.306   0.114166E-01
     0.184     0.327   0.894049E-02
     0.184     0.347   0.700513E-02
     0.184     0.367   0.549071E-02
     0.184     0.388   0.430461E-02
     0.184     0.408   0.337504E-02
     0.184     0.429   0.264616E-02
     0.184     0.449   0.207445E-02
     0.184     0.469   0.162591E-02
     0.184     0.490   0.127398E-02
     0.184     0.510   0.997833E-03
     0.184     0.531   0.781185E-03
     0.184     0.551   0.611233E-03
     0.184     0.571   0.477955E-03
     0.184     0.592   0.373465E-03
     0.184     0.612   0.291585E-03
     0.184     0.633   0.227448E-03
     0.184     0.653   0.177245E-03
     0.184     0.673   0.137969E-03
     0.184     0.694   0.107268E-03
     0.184     0.714   0.832859E-04
     0.184     0.735   0.645715E-04
     0.184     0.755   0.499770E-04
     0.184     0.776   0.386081E-04
     0.184     0.796   0.297552E-04
     0.184     0.816   0.228665E-04
     0.184     0.837   0.175031E-04
     0.184     0.857   0.133234E-04
     0.184     0.878   0.100541E-04
     0.184     0.898   0.748137E-05
     0.184     0.918   0.543181E-05
     0.184     0.939   0.376679E-05
     0.184     0.959   0.237015E-05
     0.184     0.980   0.114388E-05
     0.184     1.000    0.00000    
     0.204     0.000   0.598111    
     0.204     0.020   0.443047    
     0.204     0.041   0.320901    
     0.204     0.061   0.232593    
     0.204     0.082   0.170261    
     0.204     0.102   0.126156    
     0.204     0.122   0.945542E-01
     0.204     0.143   0.715653E-01
     0.204     0.163   0.545996E-01
     0.204     0.184   0.419214E-01
     0.204     0.204   0.323486E-01
     0.204     0.224   0.250597E-01
     0.204     0.245   0.194725E-01
     0.204     0.265   0.151669E-01
     0.204     0.286   0.118349E-01
     0.204     0.306   0.924777E-02
     0.204     0.327   0.723384E-02
     0.204     0.347   0.566291E-02
     0.204     0.367   0.443557E-02
     0.204     0.388   0.347552E-02
     0.204     0.408   0.272382E-02
     0.204     0.429   0.213487E-02
     0.204     0.449   0.167317E-02
     0.204     0.469   0.131113E-02
     0.204     0.490   0.102716E-02
     0.204     0.510   0.804413E-03
     0.204     0.531   0.629691E-03
     0.204     0.551   0.492661E-03
     0.204     0.571   0.385209E-03
     0.204     0.592   0.300983E-03
     0.204     0.612   0.234982E-03
     0.204     0.633   0.183292E-03
     0.204     0.653   0.142829E-03
     0.204     0.673   0.111179E-03
     0.204     0.694   0.864363E-04
     0.204     0.714   0.671125E-04
     0.204     0.735   0.520301E-04
     0.204     0.755   0.402713E-04
     0.204     0.776   0.311088E-04
     0.204     0.796   0.239765E-04
     0.204     0.816   0.184247E-04
     0.204     0.837   0.141038E-04
     0.204     0.857   0.107352E-04
     0.204     0.878   0.810146E-05
     0.204     0.898   0.602798E-05
     0.204     0.918   0.437690E-05
     0.204     0.939   0.303500E-05
     0.204     0.959   0.190984E-05
     0.204     0.980   0.921656E-06
     0.204     1.000    0.00000    
     0.224     0.000   0.648228    
     0.224     0.020   0.423221    
     0.224     0.041   0.277429    
     0.224     0.061   0.187774    
     0.224     0.082   0.131413    
     0.224     0.102   0.945599E-01
     0.224     0.122   0.695134E-01
     0.224     0.143   0.519285E-01
     0.224     0.163   0.392603E-01
     0.224     0.184   0.299507E-01
     0.224     0.204   0.230041E-01
     0.224     0.224   0.177597E-01
     0.224     0.245   0.137647E-01
     0.224     0.265   0.107003E-01
     0.224     0.286   0.833723E-02
     0.224     0.306   0.650731E-02
     0.224     0.327   0.508572E-02
     0.224     0.347   0.397856E-02
     0.224     0.367   0.311462E-02
     0.224     0.388   0.243946E-02
     0.224     0.408   0.191122E-02
     0.224     0.429   0.149758E-02
     0.224     0.449   0.117348E-02
     0.224     0.469   0.919407E-03
     0.224     0.490   0.720190E-03
     0.224     0.510   0.563954E-03
     0.224     0.531   0.441429E-03
     0.224     0.551   0.345343E-03
     0.224     0.571   0.270012E-03
     0.224     0.592   0.210963E-03
     0.224     0.612   0.164699E-03
     0.224     0.633   0.128464E-03
     0.224     0.653   0.100105E-03
     0.224     0.673   0.779194E-04
     0.224     0.694   0.605793E-04
     0.224     0.714   0.470342E-04
     0.224     0.735   0.364650E-04
     0.224     0.755   0.282227E-04
     0.224     0.776   0.218023E-04
     0.224     0.796   0.168028E-04
     0.224     0.816   0.129127E-04
     0.224     0.837   0.988392E-05
     0.224     0.857   0.752361E-05
     0.224     0.878   0.567744E-05
     0.224     0.898   0.422465E-05
     0.224     0.918   0.306728E-05
     0.224     0.939   0.212705E-05
     0.224     0.959   0.133839E-05
     0.224     0.980   0.645935E-06
     0.224     1.000    0.00000    
     0.245     0.000   0.695683    
     0.245     0.020   0.324180    
     0.245     0.041   0.177818    
     0.245     0.061   0.109662    
     0.245     0.082   0.730581E-01
     0.245     0.102   0.511573E-01
     0.245     0.122   0.370115E-01
     0.245     0.143   0.273758E-01
     0.245     0.163   0.205634E-01
     0.245     0.184   0.156180E-01
     0.245     0.204   0.119582E-01
     0.245     0.224   0.921113E-02
     0.245     0.245   0.712723E-02
     0.245     0.265   0.553363E-02
     0.245     0.286   0.430748E-02
     0.245     0.306   0.335961E-02
     0.245     0.327   0.262420E-02
     0.245     0.347   0.205203E-02
     0.245     0.367   0.160590E-02
     0.245     0.388   0.125745E-02
     0.245     0.408   0.984964E-03
     0.245     0.429   0.771669E-03
     0.245     0.449   0.604586E-03
     0.245     0.469   0.473642E-03
     0.245     0.490   0.370982E-03
     0.245     0.510   0.290486E-03
     0.245     0.531   0.227362E-03
     0.245     0.551   0.177867E-03
     0.245     0.571   0.139062E-03
     0.245     0.592   0.108649E-03
     0.245     0.612   0.848197E-04
     0.245     0.633   0.661592E-04
     0.245     0.653   0.515524E-04
     0.245     0.673   0.401277E-04
     0.245     0.694   0.311967E-04
     0.245     0.714   0.242219E-04
     0.245     0.735   0.187782E-04
     0.245     0.755   0.145342E-04
     0.245     0.776   0.112273E-04
     0.245     0.796   0.865315E-05
     0.245     0.816   0.664946E-05
     0.245     0.837   0.509004E-05
     0.245     0.857   0.387429E-05
     0.245     0.878   0.292379E-05
     0.245     0.898   0.217547E-05
     0.245     0.918   0.157960E-05
     0.245     0.939   0.109532E-05
     0.245     0.959   0.689251E-06
     0.245     0.980   0.332620E-06
     0.245     1.000    0.00000    
     0.265     0.000   0.740278    
     0.265     0.020   0.380846    
     0.265     0.041   0.233514    
     0.265     0.061   0.160347    
     0.265     0.082   0.117611    
     0.265     0.102   0.895403E-01
     0.265     0.122   0.696281E-01
     0.265     0.143   0.548083E-01
     0.265     0.163   0.434496E-01
     0.265     0.184   0.345869E-01
     0.265     0.204   0.275965E-01
     0.265     0.224   0.220472E-01
     0.265     0.245   0.176249E-01
     0.265     0.265   0.140930E-01
     0.265     0.286   0.112687E-01
     0.265     0.306   0.900900E-02
     0.265     0.327   0.720052E-02
     0.265     0.347   0.575318E-02
     0.265     0.367   0.459496E-02
     0.265     0.388   0.366833E-02
     0.265     0.408   0.292714E-02
     0.265     0.429   0.233448E-02
     0.265     0.449   0.186072E-02
     0.265     0.469   0.148217E-02
     0.265     0.490   0.117979E-02
     0.265     0.510   0.938394E-03
     0.265     0.531   0.745754E-03
     0.265     0.551   0.592125E-03
     0.265     0.571   0.469669E-03
     0.265     0.592   0.372142E-03
     0.265     0.612   0.294515E-03
     0.265     0.633   0.232790E-03
     0.265     0.653   0.183747E-03
     0.265     0.673   0.144827E-03
     0.265     0.694   0.113966E-03
     0.265     0.714   0.895303E-04
     0.265     0.735   0.701998E-04
     0.265     0.755   0.549316E-04
     0.265     0.776   0.428813E-04
     0.265     0.796   0.333844E-04
     0.265     0.816   0.259012E-04
     0.265     0.837   0.200078E-04
     0.265     0.857   0.153587E-04
     0.265     0.878   0.116816E-04
     0.265     0.898   0.875288E-05
     0.265     0.918   0.639417E-05
     0.265     0.939   0.445583E-05
     0.265     0.959   0.281433E-05
     0.265     0.980   0.136124E-05
     0.265     1.000    0.00000    
     0.286     0.000   0.781831    
     0.286     0.020   0.549594    
     0.286     0.041   0.392863    
     0.286     0.061   0.290263    
     0.286     0.082   0.220557    
     0.286     0.102   0.170924    
     0.286     0.122   0.134166    
     0.286     0.143   0.106157    
     0.286     0.163   0.844055E-01
     0.286     0.184   0.673036E-01
     0.286     0.204   0.537545E-01
     0.286     0.224   0.429699E-01
     0.286     0.245   0.343621E-01
     0.286     0.265   0.274809E-01
     0.286     0.286   0.219757E-01
     0.286     0.306   0.175695E-01
     0.286     0.327   0.140427E-01
     0.286     0.347   0.112199E-01
     0.286     0.367   0.896100E-02
     0.286     0.388   0.715373E-02
     0.286     0.408   0.570822E-02
     0.286     0.429   0.455236E-02
     0.286     0.449   0.362846E-02
     0.286     0.469   0.289021E-02
     0.286     0.490   0.230058E-02
     0.286     0.510   0.182981E-02
     0.286     0.531   0.145418E-02
     0.286     0.551   0.115459E-02
     0.286     0.571   0.915821E-03
     0.286     0.592   0.725632E-03
     0.286     0.612   0.574278E-03
     0.286     0.633   0.453909E-03
     0.286     0.653   0.358289E-03
     0.286     0.673   0.282389E-03
     0.286     0.694   0.222222E-03
     0.286     0.714   0.174569E-03
     0.286     0.735   0.136883E-03
     0.286     0.755   0.107106E-03
     0.286     0.776   0.836150E-04
     0.286     0.796   0.650929E-04
     0.286     0.816   0.505054E-04
     0.286     0.837   0.390111E-04
     0.286     0.857   0.299484E-04
     0.286     0.878   0.227766E-04
     0.286     0.898   0.170676E-04
     0.286     0.918   0.124671E-04
     0.286     0.939   0.868865E-05
     0.286     0.959   0.548728E-05
     0.286     0.980   0.265436E-05
     0.286     1.000    0.00000    
     0.306     0.000   0.820172    
     0.306     0.020   0.642835    
     0.306     0.041   0.498083    
     0.306     0.061   0.387288    
     0.306     0.082   0.303433    
     0.306     0.102   0.239435    
     0.306     0.122   0.189956    
     0.306     0.143   0.151254    
     0.306     0.163   0.120715    
     0.306     0.184   0.964723E-01
     0.306     0.204   0.771527E-01
     0.306     0.224   0.617208E-01
     0.306     0.245   0.493777E-01
     0.306     0.265   0.394985E-01
     0.306     0.286   0.315889E-01
     0.306     0.306   0.252561E-01
     0.306     0.327   0.201861E-01
     0.306     0.347   0.161280E-01
     0.306     0.367   0.128805E-01
     0.306     0.388   0.102824E-01
     0.306     0.408   0.820435E-02
     0.306     0.429   0.654288E-02
     0.306     0.449   0.521483E-02
     0.306     0.469   0.415374E-02
     0.306     0.490   0.330623E-02
     0.306     0.510   0.262967E-02
     0.306     0.531   0.208978E-02
     0.306     0.551   0.165924E-02
     0.306     0.571   0.131608E-02
     0.306     0.592   0.104278E-02
     0.306     0.612   0.825251E-03
     0.306     0.633   0.652290E-03
     0.306     0.653   0.514864E-03
     0.306     0.673   0.405806E-03
     0.306     0.694   0.319331E-03
     0.306     0.714   0.250863E-03
     0.306     0.735   0.196698E-03
     0.306     0.755   0.153917E-03
     0.306     0.776   0.120152E-03
     0.306     0.796   0.935417E-04
     0.306     0.816   0.725741E-04
     0.306     0.837   0.560610E-04
     0.306     0.857   0.430343E-04
     0.306     0.878   0.327313E-04
     0.306     0.898   0.245251E-04
     0.306     0.918   0.179161E-04
     0.306     0.939   0.124850E-04
     0.306     0.959   0.788561E-05
     0.306     0.980   0.381412E-05
     0.306     1.000    0.00000    
     0.327     0.000   0.855143    
     0.327     0.020   0.703491    
     0.327     0.041   0.569346    
     0.327     0.061   0.457377    
     0.327     0.082   0.366455    
     0.327     0.102   0.293431    
     0.327     0.122   0.234975    
     0.327     0.143   0.188194    
     0.327     0.163   0.150735    
     0.327     0.184   0.120724    
     0.327     0.204   0.966704E-01
     0.327     0.224   0.773901E-01
     0.327     0.245   0.619371E-01
     0.327     0.265   0.495538E-01
     0.327     0.286   0.396331E-01
     0.327     0.306   0.316874E-01
     0.327     0.327   0.253255E-01
     0.327     0.347   0.202330E-01
     0.327     0.367   0.161580E-01
     0.327     0.388   0.128980E-01
     0.327     0.408   0.102909E-01
     0.327     0.429   0.820643E-02
     0.327     0.449   0.654049E-02
     0.327     0.469   0.520945E-02
     0.327     0.490   0.414646E-02
     0.327     0.510   0.329784E-02
     0.327     0.531   0.262075E-02
     0.327     0.551   0.208076E-02
     0.327     0.571   0.165042E-02
     0.327     0.592   0.130765E-02
     0.327     0.612   0.103489E-02