Title="Temperature Data"
Variables="X","Y","T"
 
Zone I=    64, J=    64, F=POINT
     0.000     0.000    0.00000    
     0.000     0.016    0.00000    
     0.000     0.032    0.00000    
     0.000     0.048    0.00000    
     0.000     0.063    0.00000    
     0.000     0.079    0.00000    
     0.000     0.095    0.00000    
     0.000     0.111    0.00000    
     0.000     0.127    0.00000    
     0.000     0.143    0.00000    
     0.000     0.159    0.00000    
     0.000     0.175    0.00000    
     0.000     0.190    0.00000    
     0.000     0.206    0.00000    
     0.000     0.222    0.00000    
     0.000     0.238    0.00000    
     0.000     0.254    0.00000    
     0.000     0.270    0.00000    
     0.000     0.286    0.00000    
     0.000     0.302    0.00000    
     0.000     0.317    0.00000    
     0.000     0.333    0.00000    
     0.000     0.349    0.00000    
     0.000     0.365    0.00000    
     0.000     0.381    0.00000    
     0.000     0.397    0.00000    
     0.000     0.413    0.00000    
     0.000     0.429    0.00000    
     0.000     0.444    0.00000    
     0.000     0.460    0.00000    
     0.000     0.476    0.00000    
     0.000     0.492    0.00000    
     0.000     0.508    0.00000    
     0.000     0.524    0.00000    
     0.000     0.540    0.00000    
     0.000     0.556    0.00000    
     0.000     0.571    0.00000    
     0.000     0.587    0.00000    
     0.000     0.603    0.00000    
     0.000     0.619    0.00000    
     0.000     0.635    0.00000    
     0.000     0.651    0.00000    
     0.000     0.667    0.00000    
     0.000     0.683    0.00000    
     0.000     0.698    0.00000    
     0.000     0.714    0.00000    
     0.000     0.730    0.00000    
     0.000     0.746    0.00000    
     0.000     0.762    0.00000    
     0.000     0.778    0.00000    
     0.000     0.794    0.00000    
     0.000     0.810    0.00000    
     0.000     0.825    0.00000    
     0.000     0.841    0.00000    
     0.000     0.857    0.00000    
     0.000     0.873    0.00000    
     0.000     0.889    0.00000    
     0.000     0.905    0.00000    
     0.000     0.921    0.00000    
     0.000     0.937    0.00000    
     0.000     0.952    0.00000    
     0.000     0.968    0.00000    
     0.000     0.984    0.00000    
     0.000     1.000    0.00000    
     0.016     0.000   0.498459E-01
     0.016     0.016   0.361527E-01
     0.016     0.032   0.240974E-01
     0.016     0.048   0.146767E-01
     0.016     0.063   0.813738E-02
     0.016     0.079   0.409833E-02
     0.016     0.095   0.187325E-02
     0.016     0.111   0.777040E-03
     0.016     0.127   0.292680E-03
     0.016     0.143   0.100197E-03
     0.016     0.159   0.312127E-04
     0.016     0.175   0.885823E-05
     0.016     0.190   0.229312E-05
     0.016     0.206   0.542075E-06
     0.016     0.222   0.117133E-06
     0.016     0.238   0.231551E-07
     0.016     0.254   0.419036E-08
     0.016     0.270   0.694524E-09
     0.016     0.286   0.105452E-09
     0.016     0.302   0.146675E-10
     0.016     0.317   0.186844E-11
     0.016     0.333   0.217871E-12
     0.016     0.349   0.232364E-13
     0.016     0.365   0.226410E-14
     0.016     0.381   0.201253E-15
     0.016     0.397   0.162893E-16
     0.016     0.413   0.119776E-17
     0.016     0.429   0.797859E-19
     0.016     0.444   0.479828E-20
     0.016     0.460   0.259450E-21
     0.016     0.476   0.125504E-22
     0.016     0.492   0.539828E-24
     0.016     0.508   0.204930E-25
     0.016     0.524   0.680286E-27
     0.016     0.540   0.195185E-28
     0.016     0.556   0.476807E-30
     0.016     0.571   0.972134E-32
     0.016     0.587   0.160933E-33
     0.016     0.603   0.207800E-35
     0.016     0.619   0.196316E-37
     0.016     0.635   0.120690E-39
     0.016     0.651   0.362322E-42
     0.016     0.667    0.00000    
     0.016     0.683    0.00000    
     0.016     0.698    0.00000    
     0.016     0.714    0.00000    
     0.016     0.730    0.00000    
     0.016     0.746    0.00000    
     0.016     0.762    0.00000    
     0.016     0.778    0.00000    
     0.016     0.794    0.00000    
     0.016     0.810    0.00000    
     0.016     0.825    0.00000    
     0.016     0.841    0.00000    
     0.016     0.857    0.00000    
     0.016     0.873    0.00000    
     0.016     0.889    0.00000    
     0.016     0.905    0.00000    
     0.016     0.921    0.00000    
     0.016     0.937    0.00000    
     0.016     0.952    0.00000    
     0.016     0.968    0.00000    
     0.016     0.984    0.00000    
     0.016     1.000    0.00000    
     0.032     0.000   0.995678E-01
     0.032     0.016   0.722156E-01
     0.032     0.032   0.481349E-01
     0.032     0.048   0.293169E-01
     0.032     0.063   0.162545E-01
     0.032     0.079   0.818646E-02
     0.032     0.095   0.374185E-02
     0.032     0.111   0.155215E-02
     0.032     0.127   0.584633E-03
     0.032     0.143   0.200146E-03
     0.032     0.159   0.623478E-04
     0.032     0.175   0.176944E-04
     0.032     0.190   0.458054E-05
     0.032     0.206   0.108280E-05
     0.032     0.222   0.233974E-06
     0.032     0.238   0.462527E-07
     0.032     0.254   0.837031E-08
     0.032     0.270   0.138732E-08
     0.032     0.286   0.210642E-09
     0.032     0.302   0.292985E-10
     0.032     0.317   0.373223E-11
     0.032     0.333   0.435201E-12
     0.032     0.349   0.464150E-13
     0.032     0.365   0.452257E-14
     0.032     0.381   0.402006E-15
     0.032     0.397   0.325380E-16
     0.032     0.413   0.239254E-17
     0.032     0.429   0.159373E-18
     0.032     0.444   0.958462E-20
     0.032     0.460   0.518255E-21
     0.032     0.476   0.250696E-22
     0.032     0.492   0.107831E-23
     0.032     0.508   0.409351E-25
     0.032     0.524   0.135888E-26
     0.032     0.540   0.389884E-28
     0.032     0.556   0.952429E-30
     0.032     0.571   0.194185E-31
     0.032     0.587   0.321467E-33
     0.032     0.603   0.415084E-35
     0.032     0.619   0.392144E-37
     0.032     0.635   0.241081E-39
     0.032     0.651   0.723743E-42
     0.032     0.667    0.00000    
     0.032     0.683    0.00000    
     0.032     0.698    0.00000    
     0.032     0.714    0.00000    
     0.032     0.730    0.00000    
     0.032     0.746    0.00000    
     0.032     0.762    0.00000    
     0.032     0.778    0.00000    
     0.032     0.794    0.00000    
     0.032     0.810    0.00000    
     0.032     0.825    0.00000    
     0.032     0.841    0.00000    
     0.032     0.857    0.00000    
     0.032     0.873    0.00000    
     0.032     0.889    0.00000    
     0.032     0.905    0.00000    
     0.032     0.921    0.00000    
     0.032     0.937    0.00000    
     0.032     0.952    0.00000    
     0.032     0.968    0.00000    
     0.032     0.984    0.00000    
     0.032     1.000    0.00000    
     0.048     0.000   0.149042    
     0.048     0.016   0.108099    
     0.048     0.032   0.720527E-01
     0.048     0.048   0.438842E-01
     0.048     0.063   0.243313E-01
     0.048     0.079   0.122542E-01
     0.048     0.095   0.560115E-02
     0.048     0.111   0.232340E-02
     0.048     0.127   0.875132E-03
     0.048     0.143   0.299597E-03
     0.048     0.159   0.933279E-04
     0.048     0.175   0.264866E-04
     0.048     0.190   0.685657E-05
     0.048     0.206   0.162084E-05
     0.048     0.222   0.350234E-06
     0.048     0.238   0.692353E-07
     0.048     0.254   0.125294E-07
     0.048     0.270   0.207667E-08
     0.048     0.286   0.315308E-09
     0.048     0.302   0.438567E-10
     0.048     0.317   0.558675E-11
     0.048     0.333   0.651449E-12
     0.048     0.349   0.694782E-13
     0.048     0.365   0.676980E-14
     0.048     0.381   0.601760E-15
     0.048     0.397   0.487059E-16
     0.048     0.413   0.358138E-17
     0.048     0.429   0.238565E-18
     0.048     0.444   0.143471E-19
     0.048     0.460   0.775771E-21
     0.048     0.476   0.375265E-22
     0.048     0.492   0.161412E-23
     0.048     0.508   0.612754E-25
     0.048     0.524   0.203410E-26
     0.048     0.540   0.583614E-28
     0.048     0.556   0.142568E-29
     0.048     0.571   0.290674E-31
     0.048     0.587   0.481201E-33
     0.048     0.603   0.621335E-35
     0.048     0.619   0.586998E-37
     0.048     0.635   0.360872E-39
     0.048     0.651   0.108336E-41
     0.048     0.667    0.00000    
     0.048     0.683    0.00000    
     0.048     0.698    0.00000    
     0.048     0.714    0.00000    
     0.048     0.730    0.00000    
     0.048     0.746    0.00000    
     0.048     0.762    0.00000    
     0.048     0.778    0.00000    
     0.048     0.794    0.00000    
     0.048     0.810    0.00000    
     0.048     0.825    0.00000    
     0.048     0.841    0.00000    
     0.048     0.857    0.00000    
     0.048     0.873    0.00000    
     0.048     0.889    0.00000    
     0.048     0.905    0.00000    
     0.048     0.921    0.00000    
     0.048     0.937    0.00000    
     0.048     0.952    0.00000    
     0.048     0.968    0.00000    
     0.048     0.984    0.00000    
     0.048     1.000    0.00000    
     0.063     0.000   0.198146    
     0.063     0.016   0.143713    
     0.063     0.032   0.957914E-01
     0.063     0.048   0.583425E-01
     0.063     0.063   0.323475E-01
     0.063     0.079   0.162916E-01
     0.063     0.095   0.744652E-02
     0.063     0.111   0.308887E-02
     0.063     0.127   0.116345E-02
     0.063     0.143   0.398303E-03
     0.063     0.159   0.124076E-03
     0.063     0.175   0.352130E-04
     0.063     0.190   0.911555E-05
     0.063     0.206   0.215484E-05
     0.063     0.222   0.465623E-06
     0.063     0.238   0.920458E-07
     0.063     0.254   0.166574E-07
     0.063     0.270   0.276086E-08
     0.063     0.286   0.419191E-09
     0.063     0.302   0.583058E-10
     0.063     0.317   0.742737E-11
     0.063     0.333   0.866077E-12
     0.063     0.349   0.923686E-13
     0.063     0.365   0.900020E-14
     0.063     0.381   0.800017E-15
     0.063     0.397   0.647527E-16
     0.063     0.413   0.476131E-17
     0.063     0.429   0.317163E-18
     0.063     0.444   0.190740E-19
     0.063     0.460   0.103136E-20
     0.063     0.476   0.498901E-22
     0.063     0.492   0.214591E-23
     0.063     0.508   0.814634E-25
     0.063     0.524   0.270426E-26
     0.063     0.540   0.775893E-28
     0.063     0.556   0.189539E-29
     0.063     0.571   0.386440E-31
     0.063     0.587   0.639738E-33
     0.063     0.603   0.826042E-35
     0.063     0.619   0.780391E-37
     0.063     0.635   0.479765E-39
     0.063     0.651   0.144029E-41
     0.063     0.667    0.00000    
     0.063     0.683    0.00000    
     0.063     0.698    0.00000    
     0.063     0.714    0.00000    
     0.063     0.730    0.00000    
     0.063     0.746    0.00000    
     0.063     0.762    0.00000    
     0.063     0.778    0.00000    
     0.063     0.794    0.00000    
     0.063     0.810    0.00000    
     0.063     0.825    0.00000    
     0.063     0.841    0.00000    
     0.063     0.857    0.00000    
     0.063     0.873    0.00000    
     0.063     0.889    0.00000    
     0.063     0.905    0.00000    
     0.063     0.921    0.00000    
     0.063     0.937    0.00000    
     0.063     0.952    0.00000    
     0.063     0.968    0.00000    
     0.063     0.984    0.00000    
     0.063     1.000    0.00000    
     0.079     0.000   0.246757    
     0.079     0.016   0.178971    
     0.079     0.032   0.119292    
     0.079     0.048   0.726556E-01
     0.079     0.063   0.402833E-01
     0.079     0.079   0.202884E-01
     0.079     0.095   0.927337E-02
     0.079     0.111   0.384666E-02
     0.079     0.127   0.144889E-02
     0.079     0.143   0.496018E-03
     0.079     0.159   0.154516E-03
     0.079     0.175   0.438518E-04
     0.079     0.190   0.113519E-04
     0.079     0.206   0.268349E-05
     0.079     0.222   0.579854E-06
     0.079     0.238   0.114627E-06
     0.079     0.254   0.207440E-07
     0.079     0.270   0.343818E-08
     0.079     0.286   0.522031E-09
     0.079     0.302   0.726100E-10
     0.079     0.317   0.924953E-11
     0.079     0.333   0.107855E-11
     0.079     0.349   0.115029E-12
     0.079     0.365   0.112082E-13
     0.079     0.381   0.996285E-15
     0.079     0.397   0.806385E-16
     0.079     0.413   0.592940E-17
     0.079     0.429   0.394973E-18
     0.079     0.444   0.237534E-19
     0.079     0.460   0.128438E-20
     0.079     0.476   0.621296E-22
     0.079     0.492   0.267237E-23
     0.079     0.508   0.101449E-24
     0.079     0.524   0.336769E-26
     0.079     0.540   0.966244E-28
     0.079     0.556   0.236039E-29
     0.079     0.571   0.481246E-31
     0.079     0.587   0.796686E-33
     0.079     0.603   0.102870E-34
     0.079     0.619   0.971845E-37
     0.079     0.635   0.597466E-39
     0.079     0.651   0.179364E-41
     0.079     0.667    0.00000    
     0.079     0.683    0.00000    
     0.079     0.698    0.00000    
     0.079     0.714    0.00000    
     0.079     0.730    0.00000    
     0.079     0.746    0.00000    
     0.079     0.762    0.00000    
     0.079     0.778    0.00000    
     0.079     0.794    0.00000    
     0.079     0.810    0.00000    
     0.079     0.825    0.00000    
     0.079     0.841    0.00000    
     0.079     0.857    0.00000    
     0.079     0.873    0.00000    
     0.079     0.889    0.00000    
     0.079     0.905    0.00000    
     0.079     0.921    0.00000    
     0.079     0.937    0.00000    
     0.079     0.952    0.00000    
     0.079     0.968    0.00000    
     0.079     0.984    0.00000    
     0.079     1.000    0.00000    
     0.095     0.000   0.294755    
     0.095     0.016   0.213783    
     0.095     0.032   0.142496    
     0.095     0.048   0.867882E-01
     0.095     0.063   0.481190E-01
     0.095     0.079   0.242348E-01
     0.095     0.095   0.110772E-01
     0.095     0.111   0.459489E-02
     0.095     0.127   0.173071E-02
     0.095     0.143   0.592501E-03
     0.095     0.159   0.184571E-03
     0.095     0.175   0.523816E-04
     0.095     0.190   0.135600E-04
     0.095     0.206   0.320547E-05
     0.095     0.222   0.692644E-06
     0.095     0.238   0.136924E-06
     0.095     0.254   0.247790E-07
     0.095     0.270   0.410695E-08
     0.095     0.286   0.623573E-09
     0.095     0.302   0.867337E-10
     0.095     0.317   0.110487E-10
     0.095     0.333   0.128834E-11
     0.095     0.349   0.137404E-12
     0.095     0.365   0.133884E-13
     0.095     0.381   0.119008E-14
     0.095     0.397   0.963238E-16
     0.095     0.413   0.708276E-17
     0.095     0.429   0.471800E-18
     0.095     0.444   0.283738E-19
     0.095     0.460   0.153421E-20
     0.095     0.476   0.742147E-22
     0.095     0.492   0.319218E-23
     0.095     0.508   0.121182E-24
     0.095     0.524   0.402276E-26
     0.095     0.540   0.115419E-27
     0.095     0.556   0.281952E-29
     0.095     0.571   0.574855E-31
     0.095     0.587   0.951652E-33
     0.095     0.603   0.122879E-34
     0.095     0.619   0.116088E-36
     0.095     0.635   0.713682E-39
     0.095     0.651   0.214253E-41
     0.095     0.667    0.00000    
     0.095     0.683    0.00000    
     0.095     0.698    0.00000    
     0.095     0.714    0.00000    
     0.095     0.730    0.00000    
     0.095     0.746    0.00000    
     0.095     0.762    0.00000    
     0.095     0.778    0.00000    
     0.095     0.794    0.00000    
     0.095     0.810    0.00000    
     0.095     0.825    0.00000    
     0.095     0.841    0.00000    
     0.095     0.857    0.00000    
     0.095     0.873    0.00000    
     0.095     0.889    0.00000    
     0.095     0.905    0.00000    
     0.095     0.921    0.00000    
     0.095     0.937    0.00000    
     0.095     0.952    0.00000    
     0.095     0.968    0.00000    
     0.095     0.984    0.00000    
     0.095     1.000    0.00000    
     0.111     0.000   0.342020    
     0.111     0.016   0.248064    
     0.111     0.032   0.165346    
     0.111     0.048   0.100705    
     0.111     0.063   0.558351E-01
     0.111     0.079   0.281209E-01
     0.111     0.095   0.128534E-01
     0.111     0.111   0.533170E-02
     0.111     0.127   0.200824E-02
     0.111     0.143   0.687510E-03
     0.111     0.159   0.214168E-03
     0.111     0.175   0.607812E-04
     0.111     0.190   0.157344E-04
     0.111     0.206   0.371947E-05
     0.111     0.222   0.803712E-06
     0.111     0.238   0.158880E-06
     0.111     0.254   0.287524E-07
     0.111     0.270   0.476551E-08
     0.111     0.286   0.723566E-09
     0.111     0.302   0.100642E-09
     0.111     0.317   0.128204E-10
     0.111     0.333   0.149494E-11
     0.111     0.349   0.159438E-12
     0.111     0.365   0.155352E-13
     0.111     0.381   0.138091E-14
     0.111     0.397   0.111770E-15
     0.111     0.413   0.821850E-17
     0.111     0.429   0.547455E-18
     0.111     0.444   0.329236E-19
     0.111     0.460   0.178023E-20
     0.111     0.476   0.861153E-22
     0.111     0.492   0.370406E-23
     0.111     0.508   0.140614E-24
     0.111     0.524   0.466782E-26
     0.111     0.540   0.133927E-27
     0.111     0.556   0.327164E-29
     0.111     0.571   0.667035E-31
     0.111     0.587   0.110425E-32
     0.111     0.603   0.142583E-34
     0.111     0.619   0.134703E-36
     0.111     0.635   0.828123E-39
     0.111     0.651   0.248609E-41
     0.111     0.667    0.00000    
     0.111     0.683    0.00000    
     0.111     0.698    0.00000    
     0.111     0.714    0.00000    
     0.111     0.730    0.00000    
     0.111     0.746    0.00000    
     0.111     0.762    0.00000    
     0.111     0.778    0.00000    
     0.111     0.794    0.00000    
     0.111     0.810    0.00000    
     0.111     0.825    0.00000    
     0.111     0.841    0.00000    
     0.111     0.857    0.00000    
     0.111     0.873    0.00000    
     0.111     0.889    0.00000    
     0.111     0.905    0.00000    
     0.111     0.921    0.00000    
     0.111     0.937    0.00000    
     0.111     0.952    0.00000    
     0.111     0.968    0.00000    
     0.111     0.984    0.00000    
     0.111     1.000    0.00000    
     0.127     0.000   0.388435    
     0.127     0.016   0.281728    
     0.127     0.032   0.187784    
     0.127     0.048   0.114371    
     0.127     0.063   0.634123E-01
     0.127     0.079   0.319371E-01
     0.127     0.095   0.145977E-01
     0.127     0.111   0.605525E-02
     0.127     0.127   0.228077E-02
     0.127     0.143   0.780811E-03
     0.127     0.159   0.243232E-03
     0.127     0.175   0.690296E-04
     0.127     0.190   0.178696E-04
     0.127     0.206   0.422423E-05
     0.127     0.222   0.912782E-06
     0.127     0.238   0.180441E-06
     0.127     0.254   0.326543E-07
     0.127     0.270   0.541223E-08
     0.127     0.286   0.821759E-09
     0.127     0.302   0.114300E-09
     0.127     0.317   0.145602E-10
     0.127     0.333   0.169781E-11
     0.127     0.349   0.181074E-12
     0.127     0.365   0.176435E-13
     0.127     0.381   0.156831E-14
     0.127     0.397   0.126938E-15
     0.127     0.413   0.933381E-17
     0.127     0.429   0.621749E-18
     0.127     0.444   0.373916E-19
     0.127     0.460   0.202182E-20
     0.127     0.476   0.978017E-22
     0.127     0.492   0.420672E-23
     0.127     0.508   0.159696E-24
     0.127     0.524   0.530127E-26
     0.127     0.540   0.152102E-27
     0.127     0.556   0.371562E-29
     0.127     0.571   0.757556E-31
     0.127     0.587   0.125411E-32
     0.127     0.603   0.161933E-34
     0.127     0.619   0.152984E-36
     0.127     0.635   0.940506E-39
     0.127     0.651   0.282347E-41
     0.127     0.667    0.00000    
     0.127     0.683    0.00000    
     0.127     0.698    0.00000    
     0.127     0.714    0.00000    
     0.127     0.730    0.00000    
     0.127     0.746    0.00000    
     0.127     0.762    0.00000    
     0.127     0.778    0.00000    
     0.127     0.794    0.00000    
     0.127     0.810    0.00000    
     0.127     0.825    0.00000    
     0.127     0.841    0.00000    
     0.127     0.857    0.00000    
     0.127     0.873    0.00000    
     0.127     0.889    0.00000    
     0.127     0.905    0.00000    
     0.127     0.921    0.00000    
     0.127     0.937    0.00000    
     0.127     0.952    0.00000    
     0.127     0.968    0.00000    
     0.127     0.984    0.00000    
     0.127     1.000    0.00000    
     0.143     0.000   0.433884    
     0.143     0.016   0.314692    
     0.143     0.032   0.209756    
     0.143     0.048   0.127753    
     0.143     0.063   0.708319E-01
     0.143     0.079   0.356739E-01
     0.143     0.095   0.163058E-01
     0.143     0.111   0.676374E-02
     0.143     0.127   0.254764E-02
     0.143     0.143   0.872170E-03
     0.143     0.159   0.271691E-03
     0.143     0.175   0.771065E-04
     0.143     0.190   0.199605E-04
     0.143     0.206   0.471849E-05
     0.143     0.222   0.101958E-05
     0.143     0.238   0.201554E-06
     0.143     0.254   0.364751E-07
     0.143     0.270   0.604549E-08
     0.143     0.286   0.917909E-09
     0.143     0.302   0.127673E-09
     0.143     0.317   0.162638E-10
     0.143     0.333   0.189646E-11
     0.143     0.349   0.202261E-12
     0.143     0.365   0.197079E-13
     0.143     0.381   0.175181E-14
     0.143     0.397   0.141790E-15
     0.143     0.413   0.104259E-16
     0.143     0.429   0.694497E-18
     0.143     0.444   0.417666E-19
     0.143     0.460   0.225838E-20
     0.143     0.476   0.109245E-21
     0.143     0.492   0.469893E-23
     0.143     0.508   0.178382E-24
     0.143     0.524   0.592155E-26
     0.143     0.540   0.169899E-27
     0.143     0.556   0.415037E-29
     0.143     0.571   0.846194E-31
     0.143     0.587   0.140085E-32
     0.143     0.603   0.180880E-34
     0.143     0.619   0.170884E-36
     0.143     0.635   0.105055E-38
     0.143     0.651   0.315383E-41
     0.143     0.667    0.00000    
     0.143     0.683    0.00000    
     0.143     0.698    0.00000    
     0.143     0.714    0.00000    
     0.143     0.730    0.00000    
     0.143     0.746    0.00000    
     0.143     0.762    0.00000    
     0.143     0.778    0.00000    
     0.143     0.794    0.00000    
     0.143     0.810    0.00000    
     0.143     0.825    0.00000    
     0.143     0.841    0.00000    
     0.143     0.857    0.00000    
     0.143     0.873    0.00000    
     0.143     0.889    0.00000    
     0.143     0.905    0.00000    
     0.143     0.921    0.00000    
     0.143     0.937    0.00000    
     0.143     0.952    0.00000    
     0.143     0.968    0.00000    
     0.143     0.984    0.00000    
     0.143     1.000    0.00000    
     0.159     0.000   0.478254    
     0.159     0.016   0.346873    
     0.159     0.032   0.231206    
     0.159     0.048   0.140818    
     0.159     0.063   0.780753E-01
     0.159     0.079   0.393220E-01
     0.159     0.095   0.179732E-01
     0.159     0.111   0.745542E-02
     0.159     0.127   0.280816E-02
     0.159     0.143   0.961360E-03
     0.159     0.159   0.299475E-03
     0.159     0.175   0.849916E-04
     0.159     0.190   0.220017E-04
     0.159     0.206   0.520102E-05
     0.159     0.222   0.112385E-05
     0.159     0.238   0.222166E-06
     0.159     0.254   0.402051E-07
     0.159     0.270   0.666372E-08
     0.159     0.286   0.101178E-08
     0.159     0.302   0.140729E-09
     0.159     0.317   0.179270E-10
     0.159     0.333   0.209040E-11
     0.159     0.349   0.222945E-12
     0.159     0.365   0.217233E-13
     0.159     0.381   0.193096E-14
     0.159     0.397   0.156290E-15
     0.159     0.413   0.114921E-16
     0.159     0.429   0.765518E-18
     0.159     0.444   0.460378E-19
     0.159     0.460   0.248933E-20
     0.159     0.476   0.120417E-21
     0.159     0.492   0.517946E-23
     0.159     0.508   0.196623E-24
     0.159     0.524   0.652711E-26
     0.159     0.540   0.187273E-27
     0.159     0.556   0.457480E-29
     0.159     0.571   0.932729E-31
     0.159     0.587   0.154410E-32
     0.159     0.603   0.199377E-34
     0.159     0.619   0.188359E-36
     0.159     0.635   0.115798E-38
     0.159     0.651   0.347635E-41
     0.159     0.667    0.00000    
     0.159     0.683    0.00000    
     0.159     0.698    0.00000    
     0.159     0.714    0.00000    
     0.159     0.730    0.00000    
     0.159     0.746    0.00000    
     0.159     0.762    0.00000    
     0.159     0.778    0.00000    
     0.159     0.794    0.00000    
     0.159     0.810    0.00000    
     0.159     0.825    0.00000    
     0.159     0.841    0.00000    
     0.159     0.857    0.00000    
     0.159     0.873    0.00000    
     0.159     0.889    0.00000    
     0.159     0.905    0.00000    
     0.159     0.921    0.00000    
     0.159     0.937    0.00000    
     0.159     0.952    0.00000    
     0.159     0.968    0.00000    
     0.159     0.984    0.00000    
     0.159     1.000    0.00000    
     0.175     0.000   0.521435    
     0.175     0.016   0.378192    
     0.175     0.032   0.252082    
     0.175     0.048   0.153532    
     0.175     0.063   0.851247E-01
     0.175     0.079   0.428724E-01
     0.175     0.095   0.195960E-01
     0.175     0.111   0.812857E-02
     0.175     0.127   0.306171E-02
     0.175     0.143   0.104816E-02
     0.175     0.159   0.326514E-03
     0.175     0.175   0.926655E-04
     0.175     0.190   0.239882E-04
     0.175     0.206   0.567062E-05
     0.175     0.222   0.122532E-05
     0.175     0.238   0.242225E-06
     0.175     0.254   0.438352E-07
     0.175     0.270   0.726538E-08
     0.175     0.286   0.110313E-08
     0.175     0.302   0.153436E-09
     0.175     0.317   0.195456E-10
     0.175     0.333   0.227914E-11
     0.175     0.349   0.243074E-12
     0.175     0.365   0.236846E-13
     0.175     0.381   0.210530E-14
     0.175     0.397   0.170401E-15
     0.175     0.413   0.125297E-16
     0.175     0.429   0.834636E-18
     0.175     0.444   0.501945E-19
     0.175     0.460   0.271409E-20
     0.175     0.476   0.131289E-21
     0.175     0.492   0.564711E-23
     0.175     0.508   0.214376E-24
     0.175     0.524   0.711644E-26
     0.175     0.540   0.204182E-27
     0.175     0.556   0.498785E-29
     0.175     0.571   0.101694E-30
     0.175     0.587   0.168352E-32
     0.175     0.603   0.217379E-34
     0.175     0.619   0.205365E-36
     0.175     0.635   0.126254E-38
     0.175     0.651   0.379023E-41
     0.175     0.667    0.00000    
     0.175     0.683    0.00000    
     0.175     0.698    0.00000    
     0.175     0.714    0.00000    
     0.175     0.730    0.00000    
     0.175     0.746    0.00000    
     0.175     0.762    0.00000    
     0.175     0.778    0.00000    
     0.175     0.794    0.00000    
     0.175     0.810    0.00000    
     0.175     0.825    0.00000    
     0.175     0.841    0.00000    
     0.175     0.857    0.00000    
     0.175     0.873    0.00000    
     0.175     0.889    0.00000    
     0.175     0.905    0.00000    
     0.175     0.921    0.00000    
     0.175     0.937    0.00000    
     0.175     0.952    0.00000    
     0.175     0.968    0.00000    
     0.175     0.984    0.00000    
     0.175     1.000    0.00000    
     0.190     0.000   0.563320    
     0.190     0.016   0.408570    
     0.190     0.032   0.272330    
     0.190     0.048   0.165865    
     0.190     0.063   0.919624E-01
     0.190     0.079   0.463161E-01
     0.190     0.095   0.211701E-01
     0.190     0.111   0.878151E-02
     0.190     0.127   0.330765E-02
     0.190     0.143   0.113236E-02
     0.190     0.159   0.352742E-03
     0.190     0.175   0.100109E-03
     0.190     0.190   0.259151E-04
     0.190     0.206   0.612611E-05
     0.190     0.222   0.132374E-05
     0.190     0.238   0.261682E-06
     0.190     0.254   0.473563E-07
     0.190     0.270   0.784898E-08
     0.190     0.286   0.119174E-08
     0.190     0.302   0.165761E-09
     0.190     0.317   0.211157E-10
     0.190     0.333   0.246221E-11
     0.190     0.349   0.262600E-12
     0.190     0.365   0.255871E-13
     0.190     0.381   0.227441E-14
     0.190     0.397   0.184089E-15
     0.190     0.413   0.135362E-16
     0.190     0.429   0.901679E-18
     0.190     0.444   0.542265E-19
     0.190     0.460   0.293210E-20
     0.190     0.476   0.141835E-21
     0.190     0.492   0.610072E-23
     0.190     0.508   0.231596E-24
     0.190     0.524   0.768807E-26
     0.190     0.540   0.220583E-27
     0.190     0.556   0.538851E-29
     0.190     0.571   0.109863E-30
     0.190     0.587   0.181875E-32
     0.190     0.603   0.234840E-34
     0.190     0.619   0.221862E-36
     0.190     0.635   0.136395E-38
     0.190     0.651   0.409468E-41
     0.190     0.667    0.00000    
     0.190     0.683    0.00000    
     0.190     0.698    0.00000    
     0.190     0.714    0.00000    
     0.190     0.730    0.00000    
     0.190     0.746    0.00000    
     0.190     0.762    0.00000    
     0.190     0.778    0.00000    
     0.190     0.794    0.00000    
     0.190     0.810    0.00000    
     0.190     0.825    0.00000    
     0.190     0.841    0.00000    
     0.190     0.857    0.00000    
     0.190     0.873    0.00000    
     0.190     0.889    0.00000    
     0.190     0.905    0.00000    
     0.190     0.921    0.00000    
     0.190     0.937    0.00000    
     0.190     0.952    0.00000    
     0.190     0.968    0.00000    
     0.190     0.984    0.00000    