Title="Temperature Data"
Variables="X","Y","T"
 
Zone I=   128, J=   128, F=POINT
     0.000     0.000    0.00000    
     0.000     0.008    0.00000    
     0.000     0.016    0.00000    
     0.000     0.024    0.00000    
     0.000     0.031    0.00000    
     0.000     0.039    0.00000    
     0.000     0.047    0.00000    
     0.000     0.055    0.00000    
     0.000     0.063    0.00000    
     0.000     0.071    0.00000    
     0.000     0.079    0.00000    
     0.000     0.087    0.00000    
     0.000     0.094    0.00000    
     0.000     0.102    0.00000    
     0.000     0.110    0.00000    
     0.000     0.118    0.00000    
     0.000     0.126    0.00000    
     0.000     0.134    0.00000    
     0.000     0.142    0.00000    
     0.000     0.150    0.00000    
     0.000     0.157    0.00000    
     0.000     0.165    0.00000    
     0.000     0.173    0.00000    
     0.000     0.181    0.00000    
     0.000     0.189    0.00000    
     0.000     0.197    0.00000    
     0.000     0.205    0.00000    
     0.000     0.213    0.00000    
     0.000     0.220    0.00000    
     0.000     0.228    0.00000    
     0.000     0.236    0.00000    
     0.000     0.244    0.00000    
     0.000     0.252    0.00000    
     0.000     0.260    0.00000    
     0.000     0.268    0.00000    
     0.000     0.276    0.00000    
     0.000     0.283    0.00000    
     0.000     0.291    0.00000    
     0.000     0.299    0.00000    
     0.000     0.307    0.00000    
     0.000     0.315    0.00000    
     0.000     0.323    0.00000    
     0.000     0.331    0.00000    
     0.000     0.339    0.00000    
     0.000     0.346    0.00000    
     0.000     0.354    0.00000    
     0.000     0.362    0.00000    
     0.000     0.370    0.00000    
     0.000     0.378    0.00000    
     0.000     0.386    0.00000    
     0.000     0.394    0.00000    
     0.000     0.402    0.00000    
     0.000     0.409    0.00000    
     0.000     0.417    0.00000    
     0.000     0.425    0.00000    
     0.000     0.433    0.00000    
     0.000     0.441    0.00000    
     0.000     0.449    0.00000    
     0.000     0.457    0.00000    
     0.000     0.465    0.00000    
     0.000     0.472    0.00000    
     0.000     0.480    0.00000    
     0.000     0.488    0.00000    
     0.000     0.496    0.00000    
     0.000     0.504    0.00000    
     0.000     0.512    0.00000    
     0.000     0.520    0.00000    
     0.000     0.528    0.00000    
     0.000     0.535    0.00000    
     0.000     0.543    0.00000    
     0.000     0.551    0.00000    
     0.000     0.559    0.00000    
     0.000     0.567    0.00000    
     0.000     0.575    0.00000    
     0.000     0.583    0.00000    
     0.000     0.591    0.00000    
     0.000     0.598    0.00000    
     0.000     0.606    0.00000    
     0.000     0.614    0.00000    
     0.000     0.622    0.00000    
     0.000     0.630    0.00000    
     0.000     0.638    0.00000    
     0.000     0.646    0.00000    
     0.000     0.654    0.00000    
     0.000     0.661    0.00000    
     0.000     0.669    0.00000    
     0.000     0.677    0.00000    
     0.000     0.685    0.00000    
     0.000     0.693    0.00000    
     0.000     0.701    0.00000    
     0.000     0.709    0.00000    
     0.000     0.717    0.00000    
     0.000     0.724    0.00000    
     0.000     0.732    0.00000    
     0.000     0.740    0.00000    
     0.000     0.748    0.00000    
     0.000     0.756    0.00000    
     0.000     0.764    0.00000    
     0.000     0.772    0.00000    
     0.000     0.780    0.00000    
     0.000     0.787    0.00000    
     0.000     0.795    0.00000    
     0.000     0.803    0.00000    
     0.000     0.811    0.00000    
     0.000     0.819    0.00000    
     0.000     0.827    0.00000    
     0.000     0.835    0.00000    
     0.000     0.843    0.00000    
     0.000     0.850    0.00000    
     0.000     0.858    0.00000    
     0.000     0.866    0.00000    
     0.000     0.874    0.00000    
     0.000     0.882    0.00000    
     0.000     0.890    0.00000    
     0.000     0.898    0.00000    
     0.000     0.906    0.00000    
     0.000     0.913    0.00000    
     0.000     0.921    0.00000    
     0.000     0.929    0.00000    
     0.000     0.937    0.00000    
     0.000     0.945    0.00000    
     0.000     0.953    0.00000    
     0.000     0.961    0.00000    
     0.000     0.969    0.00000    
     0.000     0.976    0.00000    
     0.000     0.984    0.00000    
     0.000     0.992    0.00000    
     0.000     1.000    0.00000    
     0.008     0.000   0.247344E-01
     0.008     0.008   0.239930E-01
     0.008     0.016   0.232667E-01
     0.008     0.024   0.225550E-01
     0.008     0.031   0.218581E-01
     0.008     0.039   0.211754E-01
     0.008     0.047   0.205073E-01
     0.008     0.055   0.198531E-01
     0.008     0.063   0.192133E-01
     0.008     0.071   0.185870E-01
     0.008     0.079   0.179749E-01
     0.008     0.087   0.173760E-01
     0.008     0.094   0.167910E-01
     0.008     0.102   0.162190E-01
     0.008     0.110   0.156608E-01
     0.008     0.118   0.151151E-01
     0.008     0.126   0.145831E-01
     0.008     0.134   0.140634E-01
     0.008     0.142   0.135572E-01
     0.008     0.150   0.130629E-01
     0.008     0.157   0.125819E-01
     0.008     0.165   0.121125E-01
     0.008     0.173   0.116562E-01
     0.008     0.181   0.112113E-01
     0.008     0.189   0.107793E-01
     0.008     0.197   0.103583E-01
     0.008     0.205   0.994991E-02
     0.008     0.213   0.955226E-02
     0.008     0.220   0.916701E-02
     0.008     0.228   0.879214E-02
     0.008     0.236   0.842940E-02
     0.008     0.244   0.807672E-02
     0.008     0.252   0.773587E-02
     0.008     0.260   0.740474E-02
     0.008     0.268   0.708514E-02
     0.008     0.276   0.677490E-02
     0.008     0.283   0.647585E-02
     0.008     0.291   0.618583E-02
     0.008     0.299   0.590664E-02
     0.008     0.307   0.563611E-02
     0.008     0.315   0.537604E-02
     0.008     0.323   0.512427E-02
     0.008     0.331   0.488258E-02
     0.008     0.339   0.464882E-02
     0.008     0.346   0.442473E-02
     0.008     0.354   0.420820E-02
     0.008     0.362   0.400094E-02
     0.008     0.370   0.380085E-02
     0.008     0.378   0.360961E-02
     0.008     0.386   0.342518E-02
     0.008     0.394   0.324916E-02
     0.008     0.402   0.307958E-02
     0.008     0.409   0.291798E-02
     0.008     0.417   0.276245E-02
     0.008     0.425   0.261446E-02
     0.008     0.433   0.247218E-02
     0.008     0.441   0.233701E-02
     0.008     0.449   0.220718E-02
     0.008     0.457   0.208404E-02
     0.008     0.465   0.196589E-02
     0.008     0.472   0.185399E-02
     0.008     0.480   0.174675E-02
     0.008     0.488   0.164535E-02
     0.008     0.496   0.154827E-02
     0.008     0.504   0.145662E-02
     0.008     0.512   0.136898E-02
     0.008     0.520   0.128637E-02
     0.008     0.528   0.120745E-02
     0.008     0.535   0.113320E-02
     0.008     0.543   0.106234E-02
     0.008     0.551   0.995768E-03
     0.008     0.559   0.932317E-03
     0.008     0.567   0.872804E-03
     0.008     0.575   0.816142E-03
     0.008     0.583   0.763084E-03
     0.008     0.591   0.712626E-03
     0.008     0.598   0.665455E-03
     0.008     0.606   0.620646E-03
     0.008     0.614   0.578825E-03
     0.008     0.622   0.539144E-03
     0.008     0.630   0.502170E-03
     0.008     0.638   0.467129E-03
     0.008     0.646   0.434532E-03
     0.008     0.654   0.403675E-03
     0.008     0.661   0.375019E-03
     0.008     0.669   0.347922E-03
     0.008     0.677   0.322800E-03
     0.008     0.685   0.299073E-03
     0.008     0.693   0.277111E-03
     0.008     0.701   0.256392E-03
     0.008     0.709   0.237247E-03
     0.008     0.717   0.219205E-03
     0.008     0.724   0.202561E-03
     0.008     0.732   0.186894E-03
     0.008     0.740   0.172464E-03
     0.008     0.748   0.158896E-03
     0.008     0.756   0.146418E-03
     0.008     0.764   0.134698E-03
     0.008     0.772   0.123936E-03
     0.008     0.780   0.113838E-03
     0.008     0.787   0.104578E-03
     0.008     0.795   0.958979E-04
     0.008     0.803   0.879479E-04
     0.008     0.811   0.805011E-04
     0.008     0.819   0.736880E-04
     0.008     0.827   0.673100E-04
     0.008     0.835   0.614791E-04
     0.008     0.843   0.560223E-04
     0.008     0.850   0.510349E-04
     0.008     0.858   0.463672E-04
     0.008     0.866   0.420996E-04
     0.008     0.874   0.381029E-04
     0.008     0.882   0.344440E-04
     0.008     0.890   0.310126E-04
     0.008     0.898   0.278632E-04
     0.008     0.906   0.249021E-04
     0.008     0.913   0.221727E-04
     0.008     0.921   0.195964E-04
     0.008     0.929   0.172061E-04
     0.008     0.937   0.149368E-04
     0.008     0.945   0.128118E-04
     0.008     0.953   0.107782E-04
     0.008     0.961   0.885013E-05
     0.008     0.969   0.698598E-05
     0.008     0.976   0.519093E-05
     0.008     0.984   0.343368E-05
     0.008     0.992   0.171059E-05
     0.008     1.000    0.00000    
     0.016     0.000   0.494537E-01
     0.016     0.008   0.479715E-01
     0.016     0.016   0.465190E-01
     0.016     0.024   0.450963E-01
     0.016     0.031   0.437026E-01
     0.016     0.039   0.423381E-01
     0.016     0.047   0.410018E-01
     0.016     0.055   0.396944E-01
     0.016     0.063   0.384145E-01
     0.016     0.071   0.371630E-01
     0.016     0.079   0.359383E-01
     0.016     0.087   0.347418E-01
     0.016     0.094   0.335713E-01
     0.016     0.102   0.324286E-01
     0.016     0.110   0.313114E-01
     0.016     0.118   0.302216E-01
     0.016     0.126   0.291567E-01
     0.016     0.134   0.281189E-01
     0.016     0.142   0.271053E-01
     0.016     0.150   0.261185E-01
     0.016     0.157   0.251553E-01
     0.016     0.165   0.242184E-01
     0.016     0.173   0.233045E-01
     0.016     0.181   0.224166E-01
     0.016     0.189   0.215511E-01
     0.016     0.197   0.207111E-01
     0.016     0.205   0.198928E-01
     0.016     0.213   0.190996E-01
     0.016     0.220   0.183275E-01
     0.016     0.228   0.175799E-01
     0.016     0.236   0.168527E-01
     0.016     0.244   0.161495E-01
     0.016     0.252   0.154660E-01
     0.016     0.260   0.148059E-01
     0.016     0.268   0.141649E-01
     0.016     0.276   0.135467E-01
     0.016     0.283   0.129467E-01
     0.016     0.291   0.123689E-01
     0.016     0.299   0.118087E-01
     0.016     0.307   0.112698E-01
     0.016     0.315   0.107478E-01
     0.016     0.323   0.102464E-01
     0.016     0.331   0.976120E-02
     0.016     0.339   0.929576E-02
     0.016     0.346   0.884580E-02
     0.016     0.354   0.841477E-02
     0.016     0.362   0.799849E-02
     0.016     0.370   0.760030E-02
     0.016     0.378   0.721611E-02
     0.016     0.386   0.684916E-02
     0.016     0.394   0.649546E-02
     0.016     0.402   0.615814E-02
     0.016     0.409   0.583333E-02
     0.016     0.417   0.552404E-02
     0.016     0.425   0.522651E-02
     0.016     0.433   0.494364E-02
     0.016     0.441   0.467181E-02
     0.016     0.449   0.441377E-02
     0.016     0.457   0.416606E-02
     0.016     0.465   0.393128E-02
     0.016     0.472   0.370615E-02
     0.016     0.480   0.349311E-02
     0.016     0.488   0.328903E-02
     0.016     0.496   0.309623E-02
     0.016     0.504   0.291174E-02
     0.016     0.512   0.273771E-02
     0.016     0.520   0.257138E-02
     0.016     0.528   0.241473E-02
     0.016     0.535   0.226517E-02
     0.016     0.543   0.212454E-02
     0.016     0.551   0.199043E-02
     0.016     0.559   0.186454E-02
     0.016     0.567   0.174462E-02
     0.016     0.575   0.163222E-02
     0.016     0.583   0.152528E-02
     0.016     0.591   0.142522E-02
     0.016     0.598   0.133012E-02
     0.016     0.606   0.124128E-02
     0.016     0.614   0.115694E-02
     0.016     0.622   0.107829E-02
     0.016     0.630   0.100371E-02
     0.016     0.638   0.934277E-03
     0.016     0.646   0.868508E-03
     0.016     0.654   0.807380E-03
     0.016     0.661   0.749545E-03
     0.016     0.669   0.695880E-03
     0.016     0.677   0.645166E-03
     0.016     0.685   0.598186E-03
     0.016     0.693   0.553840E-03
     0.016     0.701   0.512828E-03
     0.016     0.709   0.474159E-03
     0.016     0.717   0.438455E-03
     0.016     0.724   0.404830E-03
     0.016     0.732   0.373833E-03
     0.016     0.740   0.344673E-03
     0.016     0.748   0.317835E-03
     0.016     0.756   0.292614E-03
     0.016     0.764   0.269438E-03
     0.016     0.772   0.247681E-03
     0.016     0.780   0.227716E-03
     0.016     0.787   0.208991E-03
     0.016     0.795   0.191832E-03
     0.016     0.803   0.175753E-03
     0.016     0.811   0.161036E-03
     0.016     0.819   0.147254E-03
     0.016     0.827   0.134650E-03
     0.016     0.835   0.122854E-03
     0.016     0.843   0.112072E-03
     0.016     0.850   0.101982E-03
     0.016     0.858   0.927587E-04
     0.016     0.866   0.841249E-04
     0.016     0.874   0.762269E-04
     0.016     0.882   0.688262E-04
     0.016     0.890   0.620434E-04
     0.016     0.898   0.556754E-04
     0.016     0.906   0.498196E-04
     0.016     0.913   0.443043E-04
     0.016     0.921   0.392054E-04
     0.016     0.929   0.343799E-04
     0.016     0.937   0.298836E-04
     0.016     0.945   0.255992E-04
     0.016     0.953   0.215638E-04
     0.016     0.961   0.176833E-04
     0.016     0.969   0.139769E-04
     0.016     0.976   0.103719E-04
     0.016     0.984   0.686979E-05
     0.016     0.992   0.341786E-05
     0.016     1.000    0.00000    
     0.024     0.000   0.741428E-01
     0.024     0.008   0.719204E-01
     0.024     0.016   0.697431E-01
     0.024     0.024   0.676098E-01
     0.024     0.031   0.655207E-01
     0.024     0.039   0.634744E-01
     0.024     0.047   0.614718E-01
     0.024     0.055   0.595108E-01
     0.024     0.063   0.575929E-01
     0.024     0.071   0.557155E-01
     0.024     0.079   0.538806E-01
     0.024     0.087   0.520854E-01
     0.024     0.094   0.503320E-01
     0.024     0.102   0.486173E-01
     0.024     0.110   0.469440E-01
     0.024     0.118   0.453084E-01
     0.024     0.126   0.437138E-01
     0.024     0.134   0.421558E-01
     0.024     0.142   0.406383E-01
     0.024     0.150   0.391566E-01
     0.024     0.157   0.377148E-01
     0.024     0.165   0.363079E-01
     0.024     0.173   0.349402E-01
     0.024     0.181   0.336065E-01
     0.024     0.189   0.323115E-01
     0.024     0.197   0.310495E-01
     0.024     0.205   0.298254E-01
     0.024     0.213   0.286334E-01
     0.024     0.220   0.274786E-01
     0.024     0.228   0.263549E-01
     0.024     0.236   0.252676E-01
     0.024     0.244   0.242104E-01
     0.024     0.252   0.231887E-01
     0.024     0.260   0.221961E-01
     0.024     0.268   0.212381E-01
     0.024     0.276   0.203081E-01
     0.024     0.283   0.194117E-01
     0.024     0.291   0.185423E-01
     0.024     0.299   0.177055E-01
     0.024     0.307   0.168945E-01
     0.024     0.315   0.161150E-01
     0.024     0.323   0.153603E-01
     0.024     0.331   0.146358E-01
     0.024     0.339   0.139351E-01
     0.024     0.346   0.132634E-01
     0.024     0.354   0.126143E-01
     0.024     0.362   0.119930E-01
     0.024     0.370   0.113933E-01
     0.024     0.378   0.108200E-01
     0.024     0.386   0.102672E-01
     0.024     0.394   0.973954E-02
     0.024     0.402   0.923121E-02
     0.024     0.409   0.874680E-02
     0.024     0.417   0.828059E-02
     0.024     0.425   0.783699E-02
     0.024     0.433   0.741049E-02
     0.024     0.441   0.700530E-02
     0.024     0.449   0.661614E-02
     0.024     0.457   0.624701E-02
     0.024     0.465   0.589285E-02
     0.024     0.472   0.555743E-02
     0.024     0.480   0.523598E-02
     0.024     0.488   0.493202E-02
     0.024     0.496   0.464102E-02
     0.024     0.504   0.436630E-02
     0.024     0.512   0.410358E-02
     0.024     0.520   0.385596E-02
     0.024     0.528   0.361941E-02
     0.024     0.535   0.339682E-02
     0.024     0.543   0.318442E-02
     0.024     0.551   0.298487E-02
     0.024     0.559   0.279467E-02
     0.024     0.567   0.261628E-02
     0.024     0.575   0.244643E-02
     0.024     0.583   0.228739E-02
     0.024     0.591   0.213613E-02
     0.024     0.598   0.199474E-02
     0.024     0.606   0.186042E-02
     0.024     0.614   0.173506E-02
     0.024     0.622   0.161611E-02
     0.024     0.630   0.150528E-02
     0.024     0.638   0.140024E-02
     0.024     0.646   0.130253E-02
     0.024     0.654   0.121004E-02
     0.024     0.661   0.112414E-02
     0.024     0.669   0.104291E-02
     0.024     0.677   0.967610E-03
     0.024     0.685   0.896486E-03
     0.024     0.693   0.830655E-03
     0.024     0.701   0.768549E-03
     0.024     0.709   0.711160E-03
     0.024     0.717   0.657080E-03
     0.024     0.724   0.607188E-03
     0.024     0.732   0.560225E-03
     0.024     0.740   0.516970E-03
     0.024     0.748   0.476299E-03
     0.024     0.756   0.438896E-03
     0.024     0.764   0.403765E-03
     0.024     0.772   0.371505E-03
     0.024     0.780   0.341236E-03
     0.024     0.787   0.313480E-03
     0.024     0.795   0.287459E-03
     0.024     0.803   0.263629E-03
     0.024     0.811   0.241306E-03
     0.024     0.819   0.220884E-03
     0.024     0.827   0.201765E-03
     0.024     0.835   0.184287E-03
     0.024     0.843   0.167930E-03
     0.024     0.850   0.152980E-03
     0.024     0.858   0.138988E-03
     0.024     0.866   0.126196E-03
     0.024     0.874   0.114215E-03
     0.024     0.882   0.103248E-03
     0.024     0.890   0.929619E-04
     0.024     0.898   0.835213E-04
     0.024     0.906   0.746454E-04
     0.024     0.913   0.664639E-04
     0.024     0.921   0.587413E-04
     0.024     0.929   0.515763E-04
     0.024     0.937   0.447739E-04
     0.024     0.945   0.384040E-04
     0.024     0.953   0.323082E-04
     0.024     0.961   0.265287E-04
     0.024     0.969   0.209409E-04
     0.024     0.976   0.155601E-04
     0.024     0.984   0.102926E-04
     0.024     0.992   0.512757E-05
     0.024     1.000    0.00000    
     0.031     0.000   0.987864E-01
     0.031     0.008   0.958255E-01
     0.031     0.016   0.929242E-01
     0.031     0.024   0.900823E-01
     0.031     0.031   0.872982E-01
     0.031     0.039   0.845726E-01
     0.031     0.047   0.819033E-01
     0.031     0.055   0.792917E-01
     0.031     0.063   0.767350E-01
     0.031     0.071   0.742351E-01
     0.031     0.079   0.717887E-01
     0.031     0.087   0.693985E-01
     0.031     0.094   0.670604E-01
     0.031     0.102   0.647779E-01
     0.031     0.110   0.625462E-01
     0.031     0.118   0.603693E-01
     0.031     0.126   0.582421E-01
     0.031     0.134   0.561690E-01
     0.031     0.142   0.541443E-01
     0.031     0.150   0.521731E-01
     0.031     0.157   0.502489E-01
     0.031     0.165   0.483775E-01
     0.031     0.173   0.465520E-01
     0.031     0.181   0.447784E-01
     0.031     0.189   0.430495E-01
     0.031     0.197   0.413715E-01
     0.031     0.205   0.397370E-01
     0.031     0.213   0.381525E-01
     0.031     0.220   0.366101E-01
     0.031     0.228   0.351167E-01
     0.031     0.236   0.336641E-01
     0.031     0.244   0.322594E-01
     0.031     0.252   0.308942E-01
     0.031     0.260   0.295757E-01
     0.031     0.268   0.282952E-01
     0.031     0.276   0.270602E-01
     0.031     0.283   0.258618E-01
     0.031     0.291   0.247075E-01
     0.031     0.299   0.235884E-01
     0.031     0.307   0.225119E-01
     0.031     0.315   0.214693E-01
     0.031     0.323   0.204677E-01
     0.031     0.331   0.194985E-01
     0.031     0.339   0.185688E-01
     0.031     0.346   0.176699E-01
     0.031     0.354   0.168090E-01
     0.031     0.362   0.159774E-01
     0.031     0.370   0.151820E-01
     0.031     0.378   0.144146E-01
     0.031     0.386   0.136816E-01
     0.031     0.394   0.129750E-01
     0.031     0.402   0.123012E-01
     0.031     0.409   0.116524E-01
     0.031     0.417   0.110346E-01
     0.031     0.425   0.104402E-01
     0.031     0.433   0.987518E-02
     0.031     0.441   0.933219E-02
     0.031     0.449   0.881673E-02
     0.031     0.457   0.832193E-02
     0.031     0.465   0.785295E-02
     0.031     0.472   0.740323E-02
     0.031     0.480   0.697767E-02
     0.031     0.488   0.657002E-02
     0.031     0.496   0.618487E-02
     0.031     0.504   0.581635E-02
     0.031     0.512   0.546872E-02
     0.031     0.520   0.513646E-02
     0.031     0.528   0.482354E-02
     0.031     0.535   0.452479E-02
     0.031     0.543   0.424388E-02
     0.031     0.551   0.397599E-02
     0.031     0.559   0.372452E-02
     0.031     0.567   0.348496E-02
     0.031     0.575   0.326045E-02
     0.031     0.583   0.304683E-02
     0.031     0.591   0.284695E-02
     0.031     0.598   0.265698E-02
     0.031     0.606   0.247952E-02
     0.031     0.614   0.231105E-02
     0.031     0.622   0.215395E-02
     0.031     0.630   0.200497E-02
     0.031     0.638   0.186627E-02
     0.031     0.646   0.173489E-02
     0.031     0.654   0.161278E-02
     0.031     0.661   0.149726E-02
     0.031     0.669   0.139006E-02
     0.031     0.677   0.128875E-02
     0.031     0.685   0.119491E-02
     0.031     0.693   0.110633E-02
     0.031     0.701   0.102440E-02
     0.031     0.709   0.947157E-03
     0.031     0.717   0.875838E-03
     0.031     0.724   0.808669E-03
     0.031     0.732   0.746751E-03
     0.031     0.740   0.688502E-03
     0.031     0.748   0.634892E-03
     0.031     0.756   0.584513E-03
     0.031     0.764   0.538216E-03
     0.031     0.772   0.494755E-03
     0.031     0.780   0.454874E-03
     0.031     0.787   0.417471E-03
     0.031     0.795   0.383195E-03
     0.031     0.803   0.351077E-03
     0.031     0.811   0.321677E-03
     0.031     0.819   0.294148E-03
     0.031     0.827   0.268971E-03
     0.031     0.835   0.245408E-03
     0.031     0.843   0.223870E-03
     0.031     0.850   0.203714E-03
     0.031     0.858   0.185290E-03
     0.031     0.866   0.168044E-03
     0.031     0.874   0.152267E-03
     0.031     0.882   0.137484E-03
     0.031     0.890   0.123935E-03
     0.031     0.898   0.111215E-03
     0.031     0.906   0.995173E-04
     0.031     0.913   0.885002E-04
     0.031     0.921   0.783150E-04
     0.031     0.929   0.686757E-04
     0.031     0.937   0.596941E-04
     0.031     0.945   0.511357E-04
     0.031     0.953   0.430748E-04
     0.031     0.961   0.353233E-04
     0.031     0.969   0.279195E-04
     0.031     0.976   0.207183E-04
     0.031     0.984   0.137228E-04
     0.031     0.992   0.682736E-05
     0.031     1.000    0.00000    
     0.039     0.000   0.123370    
     0.039     0.008   0.119672    
     0.039     0.016   0.116049    
     0.039     0.024   0.112499    
     0.039     0.031   0.109023    
     0.039     0.039   0.105618    
     0.039     0.047   0.102286    
     0.039     0.055   0.990229E-01
     0.039     0.063   0.958315E-01
     0.039     0.071   0.927077E-01
     0.039     0.079   0.896545E-01
     0.039     0.087   0.866673E-01
     0.039     0.094   0.837498E-01
     0.039     0.102   0.808966E-01
     0.039     0.110   0.781124E-01
     0.039     0.118   0.753908E-01
     0.039     0.126   0.727374E-01
     0.039     0.134   0.701451E-01
     0.039     0.142   0.676200E-01
     0.039     0.150   0.651546E-01
     0.039     0.157   0.627554E-01
     0.039     0.165   0.604144E-01
     0.039     0.173   0.581387E-01
     0.039     0.181   0.559195E-01
     0.039     0.189   0.537646E-01
     0.039     0.197   0.516647E-01
     0.039     0.205   0.496279E-01
     0.039     0.213   0.476445E-01
     0.039     0.220   0.457229E-01
     0.039     0.228   0.438532E-01
     0.039     0.236   0.420439E-01
     0.039     0.244   0.402848E-01
     0.039     0.252   0.385848E-01
     0.039     0.260   0.369332E-01
     0.039     0.268   0.353390E-01
     0.039     0.276   0.337916E-01
     0.039     0.283   0.323001E-01
     0.039     0.291   0.308535E-01
     0.039     0.299   0.294609E-01
     0.039     0.307   0.281116E-01
     0.039     0.315   0.268145E-01
     0.039     0.323   0.255587E-01
     0.039     0.331   0.243532E-01
     0.039     0.339   0.231872E-01
     0.039     0.346   0.220695E-01
     0.039     0.354   0.209895E-01
     0.039     0.362   0.199557E-01
     0.039     0.370   0.189578E-01
     0.039     0.378   0.180039E-01
     0.039     0.386   0.170840E-01
     0.039     0.394   0.162061E-01
     0.039     0.402   0.153603E-01
     0.039     0.409   0.145542E-01
     0.039     0.417   0.137785E-01
     0.039     0.425   0.130403E-01
     0.039     0.433   0.123307E-01
     0.039     0.441   0.116565E-01
     0.039     0.449   0.110089E-01
     0.039     0.457   0.103947E-01
     0.039     0.465   0.980538E-02
     0.039     0.472   0.924728E-02
     0.039     0.480   0.871239E-02
     0.039     0.488   0.820662E-02
     0.039     0.496   0.772241E-02
     0.039     0.504   0.726529E-02
     0.039     0.512   0.682814E-02
     0.039     0.520   0.641611E-02
     0.039     0.528   0.602251E-02
     0.039     0.535   0.565212E-02
     0.039     0.543   0.529870E-02
     0.039     0.551   0.496666E-02
     0.039     0.559   0.465018E-02
     0.039     0.567   0.435334E-02
     0.039     0.575   0.407073E-02
     0.039     0.583   0.380609E-02
     0.039     0.591   0.355442E-02
     0.039     0.598   0.331913E-02
     0.039     0.606   0.309564E-02
     0.039     0.614   0.288704E-02
     0.039     0.622   0.268912E-02
     0.039     0.630   0.250471E-02
     0.039     0.638   0.232993E-02
     0.039     0.646   0.216735E-02
     0.039     0.654   0.201344E-02
     0.039     0.661   0.187051E-02
     0.039     0.669   0.173535E-02
     0.039     0.677   0.161005E-02
     0.039     0.685   0.149171E-02
     0.039     0.693   0.138217E-02
     0.039     0.701   0.127883E-02
     0.039     0.709   0.118333E-02
     0.039     0.717   0.109335E-02
     0.039     0.724   0.101033E-02
     0.039     0.732   0.932186E-03
     0.039     0.740   0.860210E-03
     0.039     0.748   0.792536E-03
     0.039     0.756   0.730299E-03
     0.039     0.764   0.671844E-03
     0.039     0.772   0.618166E-03
     0.039     0.780   0.567799E-03
     0.039     0.787   0.521613E-03
     0.039     0.795   0.478317E-03
     0.039     0.803   0.438664E-03
     0.039     0.811   0.401521E-03
     0.039     0.819   0.367539E-03
     0.039     0.827   0.335727E-03
     0.039     0.835   0.306644E-03
     0.039     0.843   0.279426E-03
     0.039     0.850   0.254551E-03
     0.039     0.858   0.231269E-03
     0.039     0.866   0.209983E-03
     0.039     0.874   0.190048E-03
     0.039     0.882   0.171799E-03
     0.039     0.890   0.154684E-03
     0.039     0.898   0.138975E-03
     0.039     0.906   0.124206E-03
     0.039     0.913   0.110592E-03
     0.039     0.921   0.977424E-04
     0.039     0.929   0.858202E-04
     0.039     0.937   0.745015E-04
     0.039     0.945   0.639022E-04
     0.039     0.953   0.537591E-04
     0.039     0.961   0.441424E-04
     0.039     0.969   0.348445E-04
     0.039     0.976   0.258912E-04
     0.039     0.984   0.171264E-04
     0.039     0.992   0.853201E-05
     0.039     1.000    0.00000    
     0.047     0.000   0.147877    
     0.047     0.008   0.143445    
     0.047     0.016   0.139102    
     0.047     0.024   0.134848    
     0.047     0.031   0.130680    
     0.047     0.039   0.126600    
     0.047     0.047   0.122604    
     0.047     0.055   0.118695    
     0.047     0.063   0.114868    
     0.047     0.071   0.111126    
     0.047     0.079   0.107463    
     0.047     0.087   0.103885    
     0.047     0.094   0.100385    
     0.047     0.102   0.969686E-01
     0.047     0.110   0.936279E-01
     0.047     0.118   0.903693E-01
     0.047     0.126   0.871849E-01
     0.047     0.134   0.840817E-01
     0.047     0.142   0.810508E-01
     0.047     0.150   0.781000E-01
     0.047     0.157   0.752197E-01
     0.047     0.165   0.724183E-01
     0.047     0.173   0.696856E-01
     0.047     0.181   0.670306E-01
     0.047     0.189   0.644425E-01
     0.047     0.197   0.619307E-01
     0.047     0.205   0.594839E-01
     0.047     0.213   0.571119E-01
     0.047     0.220   0.548031E-01
     0.047     0.228   0.525676E-01
     0.047     0.236   0.503932E-01
     0.047     0.244   0.482904E-01
     0.047     0.252   0.462468E-01
     0.047     0.260   0.442730E-01
     0.047     0.268   0.423563E-01
     0.047     0.276   0.405074E-01
     0.047     0.283   0.387136E-01
     0.047     0.291   0.369856E-01
     0.047     0.299   0.353105E-01
     0.047     0.307   0.336990E-01
     0.047     0.315   0.321383E-01
     0.047     0.323   0.306389E-01
     0.047     0.331   0.291881E-01
     0.047     0.339   0.277963E-01
     0.047     0.346   0.264509E-01
     0.047     0.354   0.251620E-01
     0.047     0.362   0.239172E-01
     0.047     0.370   0.227266E-01
     0.047     0.378   0.215777E-01
     0.047     0.386   0.204805E-01
     0.047     0.394   0.194228E-01
     0.047     0.402   0.184142E-01
     0.047     0.409   0.174429E-01
     0.047     0.417   0.165181E-01
     0.047     0.425   0.156284E-01
     0.047     0.433   0.147826E-01
     0.047     0.441   0.139697E-01
     0.047     0.449   0.131981E-01
     0.047     0.457   0.124574E-01
     0.047     0.465   0.117554E-01
     0.047     0.472   0.110822E-01
     0.047     0.480   0.104451E-01
     0.047     0.488   0.983493E-02