Title="Temperature Data"
Variables="X","Y","T"
 
Zone I=    16, J=    16, F=POINT
     0.000     0.000    0.00000    
     0.000     0.067    0.00000    
     0.000     0.133    0.00000    
     0.000     0.200    0.00000    
     0.000     0.267    0.00000    
     0.000     0.333    0.00000    
     0.000     0.400    0.00000    
     0.000     0.467    0.00000    
     0.000     0.533    0.00000    
     0.000     0.600    0.00000    
     0.000     0.667    0.00000    
     0.000     0.733    0.00000    
     0.000     0.800    0.00000    
     0.000     0.867    0.00000    
     0.000     0.933    0.00000    
     0.000     1.000    0.00000    
     0.067     0.000   0.207912    
     0.067     0.067   0.168583    
     0.067     0.133   0.136623    
     0.067     0.200   0.110633    
     0.067     0.267   0.894802E-01
     0.067     0.333   0.722385E-01
     0.067     0.400   0.581549E-01
     0.067     0.467   0.466139E-01
     0.067     0.533   0.371112E-01
     0.067     0.600   0.292316E-01
     0.067     0.667   0.226304E-01
     0.067     0.733   0.170193E-01
     0.067     0.800   0.121527E-01
     0.067     0.867   0.781795E-02
     0.067     0.933   0.382528E-02
     0.067     1.000    0.00000    
     0.133     0.000   0.406737    
     0.133     0.067   0.329798    
     0.133     0.133   0.267274    
     0.133     0.200   0.216432    
     0.133     0.267   0.175050    
     0.133     0.333   0.141320    
     0.133     0.400   0.113768    
     0.133     0.467   0.911906E-01
     0.133     0.533   0.726005E-01
     0.133     0.600   0.571856E-01
     0.133     0.667   0.442718E-01
     0.133     0.733   0.332947E-01
     0.133     0.800   0.237744E-01
     0.133     0.867   0.152942E-01
     0.133     0.933   0.748337E-02
     0.133     1.000    0.00000    
     0.200     0.000   0.587785    
     0.200     0.067   0.476600    
     0.200     0.133   0.386244    
     0.200     0.200   0.312771    
     0.200     0.267   0.252969    
     0.200     0.333   0.204225    
     0.200     0.400   0.164409    
     0.200     0.467   0.131782    
     0.200     0.533   0.104917    
     0.200     0.600   0.826403E-01
     0.200     0.667   0.639783E-01
     0.200     0.733   0.481151E-01
     0.200     0.800   0.343569E-01
     0.200     0.867   0.221021E-01
     0.200     0.933   0.108144E-01
     0.200     1.000    0.00000    
     0.267     0.000   0.743145    
     0.267     0.067   0.602571    
     0.267     0.133   0.488334    
     0.267     0.200   0.395440    
     0.267     0.267   0.319832    
     0.267     0.333   0.258204    
     0.267     0.400   0.207865    
     0.267     0.467   0.166613    
     0.267     0.533   0.132648    
     0.267     0.600   0.104483    
     0.267     0.667   0.808886E-01
     0.267     0.733   0.608325E-01
     0.267     0.800   0.434379E-01
     0.267     0.867   0.279440E-01
     0.267     0.933   0.136728E-01
     0.267     1.000    0.00000    
     0.333     0.000   0.866025    
     0.333     0.067   0.702208    
     0.333     0.133   0.569081    
     0.333     0.200   0.460827    
     0.333     0.267   0.372717    
     0.333     0.333   0.300899    
     0.333     0.400   0.242236    
     0.333     0.467   0.194163    
     0.333     0.533   0.154581    
     0.333     0.600   0.121760    
     0.333     0.667   0.942638E-01
     0.333     0.733   0.708913E-01
     0.333     0.800   0.506205E-01
     0.333     0.867   0.325646E-01
     0.333     0.933   0.159336E-01
     0.333     1.000    0.00000    
     0.400     0.000   0.951057    
     0.400     0.067   0.771154    
     0.400     0.133   0.624956    
     0.400     0.200   0.506074    
     0.400     0.267   0.409312    
     0.400     0.333   0.330443    
     0.400     0.400   0.266020    
     0.400     0.467   0.213227    
     0.400     0.533   0.169759    
     0.400     0.600   0.133715    
     0.400     0.667   0.103519    
     0.400     0.733   0.778519E-01
     0.400     0.800   0.555907E-01
     0.400     0.867   0.357619E-01
     0.400     0.933   0.174981E-01
     0.400     1.000    0.00000    
     0.467     0.000   0.994522    
     0.467     0.067   0.806398    
     0.467     0.133   0.653518    
     0.467     0.200   0.529203    
     0.467     0.267   0.428019    
     0.467     0.333   0.345545    
     0.467     0.400   0.278177    
     0.467     0.467   0.222972    
     0.467     0.533   0.177517    
     0.467     0.600   0.139826    
     0.467     0.667   0.108250    
     0.467     0.733   0.814099E-01
     0.467     0.800   0.581313E-01
     0.467     0.867   0.373963E-01
     0.467     0.933   0.182978E-01
     0.467     1.000    0.00000    
     0.533     0.000   0.994522    
     0.533     0.067   0.806398    
     0.533     0.133   0.653518    
     0.533     0.200   0.529203    
     0.533     0.267   0.428019    
     0.533     0.333   0.345545    
     0.533     0.400   0.278177    
     0.533     0.467   0.222972    
     0.533     0.533   0.177517    
     0.533     0.600   0.139826    
     0.533     0.667   0.108250    
     0.533     0.733   0.814099E-01
     0.533     0.800   0.581313E-01
     0.533     0.867   0.373963E-01
     0.533     0.933   0.182978E-01
     0.533     1.000    0.00000    
     0.600     0.000   0.951057    
     0.600     0.067   0.771154    
     0.600     0.133   0.624956    
     0.600     0.200   0.506074    
     0.600     0.267   0.409312    
     0.600     0.333   0.330443    
     0.600     0.400   0.266020    
     0.600     0.467   0.213227    
     0.600     0.533   0.169759    
     0.600     0.600   0.133715    
     0.600     0.667   0.103519    
     0.600     0.733   0.778519E-01
     0.600     0.800   0.555907E-01
     0.600     0.867   0.357619E-01
     0.600     0.933   0.174981E-01
     0.600     1.000    0.00000    
     0.667     0.000   0.866025    
     0.667     0.067   0.702208    
     0.667     0.133   0.569081    
     0.667     0.200   0.460827    
     0.667     0.267   0.372717    
     0.667     0.333   0.300899    
     0.667     0.400   0.242236    
     0.667     0.467   0.194163    
     0.667     0.533   0.154581    
     0.667     0.600   0.121760    
     0.667     0.667   0.942638E-01
     0.667     0.733   0.708914E-01
     0.667     0.800   0.506205E-01
     0.667     0.867   0.325646E-01
     0.667     0.933   0.159336E-01
     0.667     1.000    0.00000    
     0.733     0.000   0.743145    
     0.733     0.067   0.602571    
     0.733     0.133   0.488334    
     0.733     0.200   0.395440    
     0.733     0.267   0.319832    
     0.733     0.333   0.258204    
     0.733     0.400   0.207865    
     0.733     0.467   0.166614    
     0.733     0.533   0.132648    
     0.733     0.600   0.104483    
     0.733     0.667   0.808887E-01
     0.733     0.733   0.608326E-01
     0.733     0.800   0.434380E-01
     0.733     0.867   0.279440E-01
     0.733     0.933   0.136728E-01
     0.733     1.000    0.00000    
     0.800     0.000   0.587785    
     0.800     0.067   0.476600    
     0.800     0.133   0.386244    
     0.800     0.200   0.312771    
     0.800     0.267   0.252969    
     0.800     0.333   0.204225    
     0.800     0.400   0.164409    
     0.800     0.467   0.131782    
     0.800     0.533   0.104917    
     0.800     0.600   0.826403E-01
     0.800     0.667   0.639784E-01
     0.800     0.733   0.481151E-01
     0.800     0.800   0.343570E-01
     0.800     0.867   0.221021E-01
     0.800     0.933   0.108144E-01
     0.800     1.000    0.00000    
     0.867     0.000   0.406737    
     0.867     0.067   0.329798    
     0.867     0.133   0.267274    
     0.867     0.200   0.216432    
     0.867     0.267   0.175050    
     0.867     0.333   0.141320    
     0.867     0.400   0.113768    
     0.867     0.467   0.911906E-01
     0.867     0.533   0.726006E-01
     0.867     0.600   0.571856E-01
     0.867     0.667   0.442719E-01
     0.867     0.733   0.332948E-01
     0.867     0.800   0.237744E-01
     0.867     0.867   0.152943E-01
     0.867     0.933   0.748339E-02
     0.867     1.000    0.00000    
     0.933     0.000   0.207912    
     0.933     0.067   0.168583    
     0.933     0.133   0.136622    
     0.933     0.200   0.110633    
     0.933     0.267   0.894803E-01
     0.933     0.333   0.722385E-01
     0.933     0.400   0.581549E-01
     0.933     0.467   0.466139E-01
     0.933     0.533   0.371113E-01
     0.933     0.600   0.292316E-01
     0.933     0.667   0.226305E-01
     0.933     0.733   0.170193E-01
     0.933     0.800   0.121528E-01
     0.933     0.867   0.781797E-02
     0.933     0.933   0.382528E-02
     0.933     1.000    0.00000    
     1.000     0.000  -0.874228E-07
     1.000     0.067    0.00000    
     1.000     0.133    0.00000    
     1.000     0.200    0.00000    
     1.000     0.267    0.00000    
     1.000     0.333    0.00000    
     1.000     0.400    0.00000    
     1.000     0.467    0.00000    
     1.000     0.533    0.00000    
     1.000     0.600    0.00000    
     1.000     0.667    0.00000    
     1.000     0.733    0.00000    
     1.000     0.800    0.00000    
     1.000     0.867    0.00000    
     1.000     0.933    0.00000    
     1.000     1.000    0.00000    
