Title="Temperature Data"
Variables="X","Y","T"
 
Zone I=    64, J=    64, F=POINT
     0.000     0.000   0.465100-309
     0.000     0.016    0.00000    
     0.000     0.032    0.00000    
     0.000     0.048   0.202567-321
     0.000     0.063   0.296439-322
     0.000     0.079    0.00000    
     0.000     0.095   0.465100-309
     0.000     0.111   0.465100-309
     0.000     0.127   0.465100-309
     0.000     0.143    0.00000    
     0.000     0.159   0.212200-313
     0.000     0.175    0.00000    
     0.000     0.190    0.00000    
     0.000     0.206   0.465100-309
     0.000     0.222    0.00000    
     0.000     0.238    0.00000    
     0.000     0.254    0.00000    
     0.000     0.270   0.465100-309
     0.000     0.286   0.424399-313
     0.000     0.302   0.465100-309
     0.000     0.317   0.465100-309
     0.000     0.333   0.636599-313
     0.000     0.349   0.212200-313
     0.000     0.365    0.00000    
     0.000     0.381   0.494066-323
     0.000     0.397    0.00000    
     0.000     0.413   0.212200-313
     0.000     0.429    0.00000    
     0.000     0.444   0.465100-309
     0.000     0.460   0.127320-312
     0.000     0.476   0.212200-313
     0.000     0.492    0.00000    
     0.000     0.508    0.00000    
     0.000     0.524    0.00000    
     0.000     0.540    0.00000    
     0.000     0.556    0.00000    
     0.000     0.571    0.00000    
     0.000     0.587    0.00000    
     0.000     0.603    0.00000    
     0.000     0.619    0.00000    
     0.000     0.635    0.00000    
     0.000     0.651    0.00000    
     0.000     0.667    0.00000    
     0.000     0.683    0.00000    
     0.000     0.698    0.00000    
     0.000     0.714    0.00000    
     0.000     0.730    0.00000    
     0.000     0.746    0.00000    
     0.000     0.762    0.00000    
     0.000     0.778    0.00000    
     0.000     0.794    0.00000    
     0.000     0.810    0.00000    
     0.000     0.825    0.00000    
     0.000     0.841    0.00000    
     0.000     0.857    0.00000    
     0.000     0.873    0.00000    
     0.000     0.889    0.00000    
     0.000     0.905    0.00000    
     0.000     0.921    0.00000    
     0.000     0.937    0.00000    
     0.000     0.952    0.00000    
     0.000     0.968    0.00000    
     0.000     0.984    0.00000    
     0.000     1.000    0.00000    
     0.016     0.000    0.00000    
     0.016     0.016   0.150099E-05
     0.016     0.032   0.915111E-08
     0.016     0.048   0.277565E-10
     0.016     0.063   0.558440E-13
     0.016     0.079   0.838399E-16
     0.016     0.095   0.100186E-18
     0.016     0.111   0.992561E-22
     0.016     0.127   0.838551E-25
     0.016     0.143   0.616688E-28
     0.016     0.159   0.401045E-31
     0.016     0.175   0.233504E-34
     0.016     0.190   0.122949E-37
     0.016     0.206   0.590301E-41
     0.016     0.222   0.260230E-44
     0.016     0.238   0.105959E-47
     0.016     0.254   0.400525E-51
     0.016     0.270   0.141173E-54
     0.016     0.286   0.465788E-58
     0.016     0.302   0.144356E-61
     0.016     0.317   0.421524E-65
     0.016     0.333   0.116289E-68
     0.016     0.349   0.303851E-72
     0.016     0.365   0.753634E-76
     0.016     0.381   0.177796E-79
     0.016     0.397   0.399716E-83
     0.016     0.413   0.857815E-87
     0.016     0.429   0.176006E-90
     0.016     0.444   0.345765E-94
     0.016     0.460   0.651236E-98
     0.016     0.476   0.117744-101
     0.016     0.492   0.204588-105
     0.016     0.508   0.342009-109
     0.016     0.524   0.550608-113
     0.016     0.540   0.854490-117
     0.016     0.556   0.127942-120
     0.016     0.571   0.184979-124
     0.016     0.587   0.258447-128
     0.016     0.603   0.349207-132
     0.016     0.619   0.456621-136
     0.016     0.635   0.578196-140
     0.016     0.651   0.709431-144
     0.016     0.667   0.843946-148
     0.016     0.683   0.973938-152
     0.016     0.698   0.109091-155
     0.016     0.714   0.118660-159
     0.016     0.730   0.125397-163
     0.016     0.746   0.128804-167
     0.016     0.762   0.128653-171
     0.016     0.778   0.125008-175
     0.016     0.794   0.118210-179
     0.016     0.810   0.108826-183
     0.016     0.825   0.975710-188
     0.016     0.841   0.852261-192
     0.016     0.857   0.725483-196
     0.016     0.873   0.602032-200
     0.016     0.889   0.487168-204
     0.016     0.905   0.384528-208
     0.016     0.921   0.296131-212
     0.016     0.937   0.222567-216
     0.016     0.952   0.163292-220
     0.016     0.968   0.116978-224
     0.016     0.984   0.818407-229
     0.016     1.000    0.00000    
     0.032     0.000    0.00000    
     0.032     0.016   0.299825E-05
     0.032     0.032   0.182795E-07
     0.032     0.048   0.554439E-10
     0.032     0.063   0.111549E-12
     0.032     0.079   0.167471E-15
     0.032     0.095   0.200122E-18
     0.032     0.111   0.198265E-21
     0.032     0.127   0.167502E-24
     0.032     0.143   0.123184E-27
     0.032     0.159   0.801092E-31
     0.032     0.175   0.466428E-34
     0.032     0.190   0.245592E-37
     0.032     0.206   0.117913E-40
     0.032     0.222   0.519813E-44
     0.032     0.238   0.211655E-47
     0.032     0.254   0.800054E-51
     0.032     0.270   0.281994E-54
     0.032     0.286   0.930417E-58
     0.032     0.302   0.288353E-61
     0.032     0.317   0.841999E-65
     0.032     0.333   0.232289E-68
     0.032     0.349   0.606947E-72
     0.032     0.365   0.150539E-75
     0.032     0.381   0.355149E-79
     0.032     0.397   0.798439E-83
     0.032     0.413   0.171350E-86
     0.032     0.429   0.351574E-90
     0.032     0.444   0.690671E-94
     0.032     0.460   0.130085E-97
     0.032     0.476   0.235195-101
     0.032     0.492   0.408668-105
     0.032     0.508   0.683167-109
     0.032     0.524   0.109985-112
     0.032     0.540   0.170685-116
     0.032     0.556   0.255566-120
     0.032     0.571   0.369498-124
     0.032     0.587   0.516252-128
     0.032     0.603   0.697546-132
     0.032     0.619   0.912107-136
     0.032     0.635   0.115495-139
     0.032     0.651   0.141710-143
     0.032     0.667   0.168579-147
     0.032     0.683   0.194546-151
     0.032     0.698   0.217911-155
     0.032     0.714   0.237025-159
     0.032     0.730   0.250481-163
     0.032     0.746   0.257287-167
     0.032     0.762   0.256986-171
     0.032     0.778   0.249706-175
     0.032     0.794   0.236127-179
     0.032     0.810   0.217381-183
     0.032     0.825   0.194899-187
     0.032     0.841   0.170240-191
     0.032     0.857   0.144916-195
     0.032     0.873   0.120257-199
     0.032     0.889   0.973125-204
     0.032     0.905   0.768099-208
     0.032     0.921   0.591526-212
     0.032     0.937   0.444581-216
     0.032     0.952   0.326179-220
     0.032     0.968   0.233664-224
     0.032     0.984   0.163478-228
     0.032     1.000    0.00000    
     0.048     0.000    0.00000    
     0.048     0.016   0.448805E-05
     0.048     0.032   0.273624E-07
     0.048     0.048   0.829936E-10
     0.048     0.063   0.166977E-12
     0.048     0.079   0.250686E-15
     0.048     0.095   0.299561E-18
     0.048     0.111   0.296782E-21
     0.048     0.127   0.250732E-24
     0.048     0.143   0.184393E-27
     0.048     0.159   0.119915E-30
     0.048     0.175   0.698192E-34
     0.048     0.190   0.367625E-37
     0.048     0.206   0.176504E-40
     0.048     0.222   0.778103E-44
     0.048     0.238   0.316825E-47
     0.048     0.254   0.119759E-50
     0.048     0.270   0.422115E-54
     0.048     0.286   0.139273E-57
     0.048     0.302   0.431634E-61
     0.048     0.317   0.126038E-64
     0.048     0.333   0.347712E-68
     0.048     0.349   0.908534E-72
     0.048     0.365   0.225341E-75
     0.048     0.381   0.531620E-79
     0.048     0.397   0.119518E-82
     0.048     0.413   0.256492E-86
     0.048     0.429   0.526268E-90
     0.048     0.444   0.103386E-93
     0.048     0.460   0.194723E-97
     0.048     0.476   0.352061-101
     0.048     0.492   0.611732-105
     0.048     0.508   0.102263-108
     0.048     0.524   0.164635-112
     0.048     0.540   0.255498-116
     0.048     0.556   0.382554-120
     0.048     0.571   0.553098-124
     0.048     0.587   0.772774-128
     0.048     0.603   0.104415-131
     0.048     0.619   0.136533-135
     0.048     0.635   0.172884-139
     0.048     0.651   0.212124-143
     0.048     0.667   0.252345-147
     0.048     0.683   0.291214-151
     0.048     0.698   0.326189-155
     0.048     0.714   0.354801-159
     0.048     0.730   0.374943-163
     0.048     0.746   0.385131-167
     0.048     0.762   0.384680-171
     0.048     0.778   0.373783-175
     0.048     0.794   0.353456-179
     0.048     0.810   0.325395-183
     0.048     0.825   0.291743-187
     0.048     0.841   0.254831-191
     0.048     0.857   0.216924-195
     0.048     0.873   0.180011-199
     0.048     0.889   0.145666-203
     0.048     0.905   0.114976-207
     0.048     0.921   0.885450-212
     0.048     0.937   0.665489-216
     0.048     0.952   0.488254-220
     0.048     0.968   0.349770-224
     0.048     0.984   0.244709-228
     0.048     1.000    0.00000    
     0.063     0.000    0.00000    
     0.063     0.016   0.596670E-05
     0.063     0.032   0.363773E-07
     0.063     0.048   0.110337E-09
     0.063     0.063   0.221990E-12
     0.063     0.079   0.333278E-15
     0.063     0.095   0.398255E-18
     0.063     0.111   0.394560E-21
     0.063     0.127   0.333339E-24
     0.063     0.143   0.245144E-27
     0.063     0.159   0.159422E-30
     0.063     0.175   0.928220E-34
     0.063     0.190   0.488743E-37
     0.063     0.206   0.234655E-40
     0.063     0.222   0.103446E-43
     0.063     0.238   0.421207E-47
     0.063     0.254   0.159216E-50
     0.063     0.270   0.561186E-54
     0.063     0.286   0.185159E-57
     0.063     0.302   0.573841E-61
     0.063     0.317   0.167563E-64
     0.063     0.333   0.462270E-68
     0.063     0.349   0.120786E-71
     0.063     0.365   0.299583E-75
     0.063     0.381   0.706769E-79
     0.063     0.397   0.158894E-82
     0.063     0.413   0.340996E-86
     0.063     0.429   0.699654E-90
     0.063     0.444   0.137448E-93
     0.063     0.460   0.258878E-97
     0.063     0.476   0.468052-101
     0.063     0.492   0.813275-105
     0.063     0.508   0.135954-108
     0.063     0.524   0.218876-112
     0.063     0.540   0.339675-116
     0.063     0.556   0.508592-120
     0.063     0.571   0.735323-124
     0.063     0.587   0.102737-127
     0.063     0.603   0.138816-131
     0.063     0.619   0.181515-135
     0.063     0.635   0.229843-139
     0.063     0.651   0.282011-143
     0.063     0.667   0.335483-147
     0.063     0.683   0.387158-151
     0.063     0.698   0.433656-155
     0.063     0.714   0.471695-159
     0.063     0.730   0.498473-163
     0.063     0.746   0.512017-167
     0.063     0.762   0.511418-171
     0.063     0.778   0.496930-175
     0.063     0.794   0.469907-179
     0.063     0.810   0.432601-183
     0.063     0.825   0.387862-187
     0.063     0.841   0.338789-191
     0.063     0.857   0.288392-195
     0.063     0.873   0.239318-199
     0.063     0.889   0.193658-203
     0.063     0.905   0.152856-207
     0.063     0.921   0.117717-211
     0.063     0.937   0.884743-216
     0.063     0.952   0.649116-220
     0.063     0.968   0.465006-224
     0.063     0.984   0.325331-228
     0.063     1.000    0.00000    
     0.079     0.000    0.00000    
     0.079     0.016   0.743051E-05
     0.079     0.032   0.453017E-07
     0.079     0.048   0.137406E-09
     0.079     0.063   0.276450E-12
     0.079     0.079   0.415042E-15
     0.079     0.095   0.495959E-18
     0.079     0.111   0.491358E-21
     0.079     0.127   0.415117E-24
     0.079     0.143   0.305286E-27
     0.079     0.159   0.198533E-30
     0.079     0.175   0.115594E-33
     0.079     0.190   0.608647E-37
     0.079     0.206   0.292223E-40
     0.079     0.222   0.128824E-43
     0.079     0.238   0.524542E-47
     0.079     0.254   0.198276E-50
     0.079     0.270   0.698861E-54
     0.079     0.286   0.230584E-57
     0.079     0.302   0.714622E-61
     0.079     0.317   0.208671E-64
     0.079     0.333   0.575679E-68
     0.079     0.349   0.150419E-71
     0.079     0.365   0.373079E-75
     0.079     0.381   0.880161E-79
     0.079     0.397   0.197876E-82
     0.079     0.413   0.424653E-86
     0.079     0.429   0.871300E-90
     0.079     0.444   0.171168E-93
     0.079     0.460   0.322388E-97
     0.079     0.476   0.582879-101
     0.079     0.492   0.101280-104
     0.079     0.508   0.169308-108
     0.079     0.524   0.272573-112
     0.079     0.540   0.423007-116
     0.079     0.556   0.633365-120
     0.079     0.571   0.915720-124
     0.079     0.587   0.127942-127
     0.079     0.603   0.172872-131
     0.079     0.619   0.226046-135
     0.079     0.635   0.286231-139
     0.079     0.651   0.351197-143
     0.079     0.667   0.417788-147
     0.079     0.683   0.482139-151
     0.079     0.698   0.540045-155
     0.079     0.714   0.587416-159
     0.079     0.730   0.620764-163
     0.079     0.746   0.637631-167
     0.079     0.762   0.636885-171
     0.079     0.778   0.618842-175
     0.079     0.794   0.585189-179
     0.079     0.810   0.538731-183
     0.079     0.825   0.483016-187
     0.079     0.841   0.421904-191
     0.079     0.857   0.359144-195
     0.079     0.873   0.298030-199
     0.079     0.889   0.241168-203
     0.079     0.905   0.190357-207
     0.079     0.921   0.146597-211
     0.079     0.937   0.110180-215
     0.079     0.952   0.808364-220
     0.079     0.968   0.579086-224
     0.079     0.984   0.405145-228
     0.079     1.000    0.00000    
     0.095     0.000    0.00000    
     0.095     0.016   0.887585E-05
     0.095     0.032   0.541135E-07
     0.095     0.048   0.164133E-09
     0.095     0.063   0.330224E-12
     0.095     0.079   0.495773E-15
     0.095     0.095   0.592430E-18
     0.095     0.111   0.586934E-21
     0.095     0.127   0.495863E-24
     0.095     0.143   0.364668E-27
     0.095     0.159   0.237151E-30
     0.095     0.175   0.138079E-33
     0.095     0.190   0.727037E-37
     0.095     0.206   0.349065E-40
     0.095     0.222   0.153882E-43
     0.095     0.238   0.626573E-47
     0.095     0.254   0.236844E-50
     0.095     0.270   0.834800E-54
     0.095     0.286   0.275436E-57
     0.095     0.302   0.853625E-61
     0.095     0.317   0.249261E-64
     0.095     0.333   0.687656E-68
     0.095     0.349   0.179677E-71
     0.095     0.365   0.445648E-75
     0.095     0.381   0.105136E-78
     0.095     0.397   0.236366E-82
     0.095     0.413   0.507254E-86
     0.095     0.429   0.104078E-89
     0.095     0.444   0.204462E-93
     0.095     0.460   0.385097E-97
     0.095     0.476   0.696257-101
     0.095     0.492   0.120980-104
     0.095     0.508   0.202241-108
     0.095     0.524   0.325593-112
     0.095     0.540   0.505288-116
     0.095     0.556   0.756563-120
     0.095     0.571   0.109384-123
     0.095     0.587   0.152828-127
     0.095     0.603   0.206498-131
     0.095     0.619   0.270015-135
     0.095     0.635   0.341906-139
     0.095     0.651   0.419510-143
     0.095     0.667   0.499053-147
     0.095     0.683   0.575922-151
     0.095     0.698   0.645091-155
     0.095     0.714   0.701676-159
     0.095     0.730   0.741511-163
     0.095     0.746   0.761659-167
     0.095     0.762   0.760768-171
     0.095     0.778   0.739215-175
     0.095     0.794   0.699016-179
     0.095     0.810   0.643522-183
     0.095     0.825   0.576970-187
     0.095     0.841   0.503970-191
     0.095     0.857   0.429002-195
     0.095     0.873   0.356001-199
     0.095     0.889   0.288078-203
     0.095     0.905   0.227384-207
     0.095     0.921   0.175112-211
     0.095     0.937   0.131611-215
     0.095     0.952   0.965602-220
     0.095     0.968   0.691727-224
     0.095     0.984   0.483951-228
     0.095     1.000    0.00000    
     0.111     0.000    0.00000    
     0.111     0.016   0.102991E-04
     0.111     0.032   0.627908E-07
     0.111     0.048   0.190452E-09
     0.111     0.063   0.383176E-12
     0.111     0.079   0.575272E-15
     0.111     0.095   0.687429E-18
     0.111     0.111   0.681051E-21
     0.111     0.127   0.575376E-24
     0.111     0.143   0.423144E-27
     0.111     0.159   0.275179E-30
     0.111     0.175   0.160220E-33
     0.111     0.190   0.843620E-37
     0.111     0.206   0.405038E-40
     0.111     0.222   0.178558E-43
     0.111     0.238   0.727046E-47
     0.111     0.254   0.274822E-50
     0.111     0.270   0.968663E-54
     0.111     0.286   0.319603E-57
     0.111     0.302   0.990507E-61
     0.111     0.317   0.289231E-64
     0.111     0.333   0.797924E-68
     0.111     0.349   0.208489E-71
     0.111     0.365   0.517110E-75
     0.111     0.381   0.121995E-78
     0.111     0.397   0.274268E-82
     0.111     0.413   0.588594E-86
     0.111     0.429   0.120767E-89
     0.111     0.444   0.237249E-93
     0.111     0.460   0.446849E-97
     0.111     0.476   0.807904-101
     0.111     0.492   0.140379-104
     0.111     0.508   0.234671-108
     0.111     0.524   0.377803-112
     0.111     0.540   0.586312-116
     0.111     0.556   0.877881-120
     0.111     0.571   0.126924-123
     0.111     0.587   0.177335-127
     0.111     0.603   0.239610-131
     0.111     0.619   0.313313-135
     0.111     0.635   0.396732-139
     0.111     0.651   0.486779-143
     0.111     0.667   0.579078-147
     0.111     0.683   0.668273-151
     0.111     0.698   0.748534-155
     0.111     0.714   0.814192-159
     0.111     0.730   0.860415-163
     0.111     0.746   0.883793-167
     0.111     0.762   0.882759-171
     0.111     0.778   0.857751-175
     0.111     0.794   0.811106-179
     0.111     0.810   0.746712-183
     0.111     0.825   0.669489-187
     0.111     0.841   0.584783-191
     0.111     0.857   0.497794-195
     0.111     0.873   0.413087-199
     0.111     0.889   0.334273-203
     0.111     0.905   0.263846-207
     0.111     0.921   0.203192-211
     0.111     0.937   0.152715-215
     0.111     0.952   0.112044-219
     0.111     0.968   0.802648-224
     0.111     0.984   0.561555-228
     0.111     1.000    0.00000    
     0.127     0.000    0.00000    
     0.127     0.016   0.116968E-04
     0.127     0.032   0.713120E-07
     0.127     0.048   0.216298E-09
     0.127     0.063   0.435176E-12
     0.127     0.079   0.653340E-15
     0.127     0.095   0.780718E-18
     0.127     0.111   0.773474E-21
     0.127     0.127   0.653459E-24
     0.127     0.143   0.480567E-27
     0.127     0.159   0.312523E-30
     0.127     0.175   0.181963E-33
     0.127     0.190   0.958105E-37
     0.127     0.206   0.460005E-40
     0.127     0.222   0.202790E-43
     0.127     0.238   0.825711E-47
     0.127     0.254   0.312118E-50
     0.127     0.270   0.110012E-53
     0.127     0.286   0.362975E-57
     0.127     0.302   0.112493E-60
     0.127     0.317   0.328481E-64
     0.127     0.333   0.906208E-68
     0.127     0.349   0.236783E-71
     0.127     0.365   0.587285E-75
     0.127     0.381   0.138551E-78
     0.127     0.397   0.311488E-82
     0.127     0.413   0.668471E-86
     0.127     0.429   0.137156E-89
     0.127     0.444   0.269445E-93
     0.127     0.460   0.507489E-97
     0.127     0.476   0.917543-101
     0.127     0.492   0.159430-104
     0.127     0.508   0.266518-108
     0.127     0.524   0.429073-112
     0.127     0.540   0.665879-116
     0.127     0.556   0.997016-120
     0.127     0.571   0.144149-123
     0.127     0.587   0.201401-127
     0.127     0.603   0.272127-131
     0.127     0.619   0.355832-135
     0.127     0.635   0.450572-139
     0.127     0.651   0.552839-143
     0.127     0.667   0.657663-147
     0.127     0.683   0.758962-151
     0.127     0.698   0.850115-155
     0.127     0.714   0.924684-159
     0.127     0.730   0.977180-163
     0.127     0.746   0.100373-166
     0.127     0.762   0.100256-170
     0.127     0.778   0.974154-175
     0.127     0.794   0.921179-179
     0.127     0.810   0.848047-183
     0.127     0.825   0.760343-187
     0.127     0.841   0.664143-191
     0.127     0.857   0.565348-195
     0.127     0.873   0.469147-199
     0.127     0.889   0.379636-203
     0.127     0.905   0.299651-207
     0.127     0.921   0.230766-211
     0.127     0.937   0.173440-215
     0.127     0.952   0.127249-219
     0.127     0.968   0.911573-224
     0.127     0.984   0.637762-228
     0.127     1.000    0.00000    
     0.143     0.000   0.465100-309
     0.143     0.016   0.130654E-04
     0.143     0.032   0.796559E-07
     0.143     0.048   0.241606E-09
     0.143     0.063   0.486094E-12
     0.143     0.079   0.729785E-15
     0.143     0.095   0.872066E-18
     0.143     0.111   0.863975E-21
     0.143     0.127   0.729917E-24
     0.143     0.143   0.536796E-27
     0.143     0.159   0.349089E-30
     0.143     0.175   0.203254E-33
     0.143     0.190   0.107021E-36
     0.143     0.206   0.513828E-40
     0.143     0.222   0.226517E-43
     0.143     0.238   0.922324E-47
     0.143     0.254   0.348637E-50
     0.143     0.270   0.122884E-53
     0.143     0.286   0.405445E-57
     0.143     0.302   0.125655E-60
     0.143     0.317   0.366915E-64
     0.143     0.333   0.101224E-67
     0.143     0.349   0.264488E-71
     0.143     0.365   0.656001E-75
     0.143     0.381   0.154762E-78
     0.143     0.397   0.347933E-82
     0.143     0.413   0.746685E-86
     0.143     0.429   0.153204E-89
     0.143     0.444   0.300971E-93
     0.143     0.460   0.566868E-97
     0.143     0.476   0.102490-100
     0.143     0.492   0.178084-104
     0.143     0.508   0.297702-108
     0.143     0.524   0.479277-112
     0.143     0.540   0.743791-116
     0.143     0.556   0.111367-119
     0.143     0.571   0.161015-123
     0.143     0.587   0.224966-127
     0.143     0.603   0.303968-131
     0.143     0.619   0.397466-135
     0.143     0.635   0.503291-139
     0.143     0.651   0.617524-143
     0.143     0.667   0.734613-147
     0.143     0.683   0.847765-151
     0.143     0.698   0.949583-155
     0.143     0.714   0.103288-158
     0.143     0.730   0.109151-162
     0.143     0.746   0.112117-166
     0.143     0.762   0.111986-170
     0.143     0.778   0.108814-174
     0.143     0.794   0.102896-178
     0.143     0.810   0.947273-183
     0.143     0.825   0.849307-187
     0.143     0.841   0.741851-191
     0.143     0.857   0.631497-195
     0.143     0.873   0.524039-199
     0.143     0.889   0.424056-203
     0.143     0.905   0.334712-207
     0.143     0.921   0.257767-211
     0.143     0.937   0.193734-215
     0.143     0.952   0.142138-219
     0.143     0.968   0.101823-223
     0.143     0.984   0.712383-228
     0.143     1.000    0.00000    
     0.159     0.000    0.00000    
     0.159     0.016   0.144015E-04
     0.159     0.032   0.878017E-07
     0.159     0.048   0.266314E-09
     0.159     0.063   0.535803E-12
     0.159     0.079   0.804415E-15
     0.159     0.095   0.961246E-18
     0.159     0.111   0.952328E-21
     0.159     0.127   0.804560E-24
     0.159     0.143   0.591691E-27
     0.159     0.159   0.384788E-30
     0.159     0.175   0.224039E-33
     0.159     0.190   0.117965E-36
     0.159     0.206   0.566374E-40
     0.159     0.222   0.249681E-43
     0.159     0.238   0.101664E-46
     0.159     0.254   0.384290E-50
     0.159     0.270   0.135450E-53
     0.159     0.286   0.446907E-57
     0.159     0.302   0.138505E-60
     0.159     0.317   0.404437E-64
     0.159     0.333   0.111575E-67
     0.159     0.349   0.291535E-71
     0.159     0.365   0.723085E-75
     0.159     0.381   0.170589E-78
     0.159     0.397   0.383514E-82
     0.159     0.413   0.823044E-86
     0.159     0.429   0.168871E-89
     0.159     0.444   0.331750E-93
     0.159     0.460   0.624838E-97
     0.159     0.476   0.112971-100
     0.159     0.492   0.196296-104
     0.159     0.508   0.328145-108
     0.159     0.524   0.528289-112
     0.159     0.540   0.819853-116
     0.159     0.556   0.122756-119
     0.159     0.571   0.177481-123
     0.159     0.587   0.247971-127
     0.159     0.603   0.335052-131
     0.159     0.619   0.438112-135
     0.159     0.635   0.554759-139
     0.159     0.651   0.680674-143
     0.159     0.667   0.809737-147
     0.159     0.683   0.934460-151
     0.159     0.698   0.104669-154
     0.159     0.714   0.113850-158
     0.159     0.730   0.120314-162
     0.159     0.746   0.123583-166
     0.159     0.762   0.123438-170
     0.159     0.778   0.119941-174
     0.159     0.794   0.113419-178
     0.159     0.810   0.104414-182
     0.159     0.825   0.936160-187
     0.159     0.841   0.817715-191
     0.159     0.857   0.696076-195
     0.159     0.873   0.577629-199
     0.159     0.889   0.467421-203
     0.159     0.905   0.368941-207
     0.159     0.921   0.284127-211
     0.159     0.937   0.213545-215
     0.159     0.952   0.156673-219
     0.159     0.968   0.112236-223
     0.159     0.984   0.785234-228
     0.159     1.000    0.00000    
     0.175     0.000    0.00000    
     0.175     0.016   0.157018E-04
     0.175     0.032   0.957293E-07
     0.175     0.048   0.290359E-09
     0.175     0.063   0.584181E-12
     0.175     0.079   0.877045E-15
     0.175     0.095   0.104804E-17
     0.175     0.111   0.103831E-20
     0.175     0.127   0.877204E-24
     0.175     0.143   0.645114E-27
     0.175     0.159   0.419531E-30
     0.175     0.175   0.244268E-33
     0.175     0.190   0.128616E-36
     0.175     0.206   0.617511E-40
     0.175     0.222   0.272225E-43
     0.175     0.238   0.110844E-46
     0.175     0.254   0.418987E-50
     0.175     0.270   0.147680E-53
     0.175     0.286   0.487258E-57
     0.175     0.302   0.151010E-60
     0.175     0.317   0.440954E-64
     0.175     0.333   0.121649E-67
     0.175     0.349   0.317857E-71
     0.175     0.365   0.788372E-75
     0.175     0.381   0.185991E-78
     0.175     0.397   0.418141E-82
     0.175     0.413   0.897356E-86
     0.175     0.429   0.184119E-89
     0.175     0.444   0.361703E-93
     0.175     0.460   0.681254E-97
     0.175     0.476   0.123171-100
     0.175     0.492   0.214019-104
     0.175     0.508   0.357773-108
     0.175     0.524   0.575988-112
     0.175     0.540   0.893877-116
     0.175     0.556   0.133839-119
     0.175     0.571   0.193505-123
     0.175     0.587   0.270361-127
     0.175     0.603   0.365304-131
     0.175     0.619   0.477669-135
     0.175     0.635   0.604848-139
     0.175     0.651   0.742132-143
     0.175     0.667   0.882848-147
     0.175     0.683   0.101883-150
     0.175     0.698   0.114120-154
     0.175     0.714   0.124130-158
     0.175     0.730   0.131177-162
     0.175     0.746   0.134741-166
     0.175     0.762   0.134583-170
     0.175     0.778   0.130771-174
     0.175     0.794   0.123659-178
     0.175     0.810   0.113842-182
     0.175     0.825   0.102069-186
     0.175     0.841   0.891546-191
     0.175     0.857   0.758924-195
     0.175     0.873   0.629783-199
     0.175     0.889   0.509624-203
     0.175     0.905   0.402252-207
     0.175     0.921   0.309781-211
     0.175     0.937   0.232826-215
     0.175     0.952   0.170819-219
     0.175     0.968   0.122370-223
     0.175     0.984   0.856132-228
     0.175     1.000    0.00000    
     0.190     0.000    0.00000    
     0.190     0.016   0.169630E-04
     0.190     0.032   0.103419E-06
     0.190     0.048   0.313682E-09
     0.190     0.063   0.631106E-12
     0.190     0.079   0.947494E-15
     0.190     0.095   0.113222E-17
     0.190     0.111   0.112172E-20
     0.190     0.127   0.947666E-24
     0.190     0.143   0.696933E-27
     0.190     0.159   0.453230E-30
     0.190     0.175   0.263889E-33
     0.190     0.190   0.138947E-36
     0.190     0.206   0.667113E-40
     0.190     0.222   0.294092E-43
     0.190     0.238   0.119747E-46
     0.190     0.254   0.452643E-50
     0.190     0.270   0.159542E-53
     0.190     0.286   0.526397E-57
     0.190     0.302   0.163140E-60
     0.190     0.317   0.476374E-64
     0.190     0.333   0.131421E-67
     0.190     0.349   0.343390E-71
     0.190     0.365   0.851699E-75
     0.190     0.381   0.200931E-78
     0.190     0.397   0.451729E-82
     0.190     0.413   0.969437E-86
     0.190     0.429   0.198908E-89
     0.190     0.444   0.390757E-93
     0.190     0.460   0.735977E-97
     0.190     0.476   0.133065-100
     0.190     0.492   0.231210-104
     0.190     0.508   0.386512-108
     0.190     0.524   0.622255-112
     0.190     0.540   0.965679-116
     0.190     0.556   0.144590-119
     0.190     0.571   0.209049-123
     0.190     0.587   0.292078-127
     0.190     0.603   0.394647-131
     0.190     0.619   0.516038-135
     0.190     0.635   0.653433-139
     0.190     0.651   0.801744-143
     0.190     0.667   0.953764-147
     0.190     0.683   0.110067-150
     0.190     0.698   0.123286-154
     0.190     0.714   0.134101-158
     0.190     0.730   0.141714-162
     0.190     0.746   0.145564-166
     0.190     0.762   0.145394-170
     0.190     0.778   0.141275-174
     0.190     0.794   0.133592-178
     0.190     0.810   0.122986-182
     0.190     0.825   0.110267-186
     0.190     0.841   0.963160-191
     0.190     0.857   0.819885-195
     0.190     0.873   0.680371-199
     0.190     0.889   0.550560-203
     0.190     0.905   0.434564-207
     0.190     0.921   0.334665-211
     0.190     0.937   0.251528-215
     0.190     0.952   0.184541-219
     0.190     0.968   0.132199-223
     0.190     0.984   0.924901-228