Title="Temperature Data"
Variables="X","Y","T"
 
Zone I=   128, J=   128, F=POINT
     0.000     0.000    0.00000    
     0.000     0.008    0.00000    
     0.000     0.016    0.00000    
     0.000     0.024    0.00000    
     0.000     0.031    0.00000    
     0.000     0.039    0.00000    
     0.000     0.047    0.00000    
     0.000     0.055    0.00000    
     0.000     0.063    0.00000    
     0.000     0.071    0.00000    
     0.000     0.079    0.00000    
     0.000     0.087    0.00000    
     0.000     0.094    0.00000    
     0.000     0.102    0.00000    
     0.000     0.110    0.00000    
     0.000     0.118    0.00000    
     0.000     0.126    0.00000    
     0.000     0.134    0.00000    
     0.000     0.142    0.00000    
     0.000     0.150    0.00000    
     0.000     0.157    0.00000    
     0.000     0.165    0.00000    
     0.000     0.173    0.00000    
     0.000     0.181    0.00000    
     0.000     0.189    0.00000    
     0.000     0.197    0.00000    
     0.000     0.205    0.00000    
     0.000     0.213    0.00000    
     0.000     0.220    0.00000    
     0.000     0.228    0.00000    
     0.000     0.236    0.00000    
     0.000     0.244    0.00000    
     0.000     0.252    0.00000    
     0.000     0.260    0.00000    
     0.000     0.268    0.00000    
     0.000     0.276    0.00000    
     0.000     0.283    0.00000    
     0.000     0.291    0.00000    
     0.000     0.299    0.00000    
     0.000     0.307    0.00000    
     0.000     0.315    0.00000    
     0.000     0.323    0.00000    
     0.000     0.331    0.00000    
     0.000     0.339    0.00000    
     0.000     0.346    0.00000    
     0.000     0.354    0.00000    
     0.000     0.362    0.00000    
     0.000     0.370    0.00000    
     0.000     0.378    0.00000    
     0.000     0.386    0.00000    
     0.000     0.394    0.00000    
     0.000     0.402    0.00000    
     0.000     0.409    0.00000    
     0.000     0.417    0.00000    
     0.000     0.425    0.00000    
     0.000     0.433    0.00000    
     0.000     0.441    0.00000    
     0.000     0.449    0.00000    
     0.000     0.457    0.00000    
     0.000     0.465    0.00000    
     0.000     0.472    0.00000    
     0.000     0.480    0.00000    
     0.000     0.488    0.00000    
     0.000     0.496    0.00000    
     0.000     0.504    0.00000    
     0.000     0.512   0.247344E-01
     0.000     0.520    0.00000    
     0.000     0.528    0.00000    
     0.000     0.535    0.00000    
     0.000     0.543    0.00000    
     0.000     0.551    0.00000    
     0.000     0.559    0.00000    
     0.000     0.567    0.00000    
     0.000     0.575    0.00000    
     0.000     0.583    0.00000    
     0.000     0.591    0.00000    
     0.000     0.598    0.00000    
     0.000     0.606    0.00000    
     0.000     0.614    0.00000    
     0.000     0.622    0.00000    
     0.000     0.630    0.00000    
     0.000     0.638    0.00000    
     0.000     0.646    0.00000    
     0.000     0.654    0.00000    
     0.000     0.661    0.00000    
     0.000     0.669    0.00000    
     0.000     0.677    0.00000    
     0.000     0.685    0.00000    
     0.000     0.693    0.00000    
     0.000     0.701    0.00000    
     0.000     0.709    0.00000    
     0.000     0.717    0.00000    
     0.000     0.724    0.00000    
     0.000     0.732    0.00000    
     0.000     0.740    0.00000    
     0.000     0.748    0.00000    
     0.000     0.756    0.00000    
     0.000     0.764    0.00000    
     0.000     0.772    0.00000    
     0.000     0.780    0.00000    
     0.000     0.787    0.00000    
     0.000     0.795    0.00000    
     0.000     0.803    0.00000    
     0.000     0.811    0.00000    
     0.000     0.819    0.00000    
     0.000     0.827    0.00000    
     0.000     0.835    0.00000    
     0.000     0.843    0.00000    
     0.000     0.850    0.00000    
     0.000     0.858    0.00000    
     0.000     0.866    0.00000    
     0.000     0.874    0.00000    
     0.000     0.882    0.00000    
     0.000     0.890    0.00000    
     0.000     0.898    0.00000    
     0.000     0.906    0.00000    
     0.000     0.913    0.00000    
     0.000     0.921    0.00000    
     0.000     0.929    0.00000    
     0.000     0.937    0.00000    
     0.000     0.945    0.00000    
     0.000     0.953    0.00000    
     0.000     0.961    0.00000    
     0.000     0.969    0.00000    
     0.000     0.976    0.00000    
     0.000     0.984    0.00000    
     0.000     0.992    0.00000    
     0.000     1.000    0.00000    
     0.008     0.000   0.247344E-01
     0.008     0.008   0.241272E-01
     0.008     0.016   0.235346E-01
     0.008     0.024   0.229565E-01
     0.008     0.031   0.223925E-01
     0.008     0.039   0.218421E-01
     0.008     0.047   0.213052E-01
     0.008     0.055   0.207812E-01
     0.008     0.063   0.202700E-01
     0.008     0.071   0.197712E-01
     0.008     0.079   0.192845E-01
     0.008     0.087   0.188096E-01
     0.008     0.094   0.183463E-01
     0.008     0.102   0.178942E-01
     0.008     0.110   0.174530E-01
     0.008     0.118   0.170226E-01
     0.008     0.126   0.166026E-01
     0.008     0.134   0.161927E-01
     0.008     0.142   0.157928E-01
     0.008     0.150   0.154026E-01
     0.008     0.157   0.150218E-01
     0.008     0.165   0.146503E-01
     0.008     0.173   0.142877E-01
     0.008     0.181   0.139339E-01
     0.008     0.189   0.135887E-01
     0.008     0.197   0.132518E-01
     0.008     0.205   0.129231E-01
     0.008     0.213   0.126023E-01
     0.008     0.220   0.122893E-01
     0.008     0.228   0.119838E-01
     0.008     0.236   0.116858E-01
     0.008     0.244   0.113949E-01
     0.008     0.252   0.111110E-01
     0.008     0.260   0.108341E-01
     0.008     0.268   0.105638E-01
     0.008     0.276   0.103000E-01
     0.008     0.283   0.100427E-01
     0.008     0.291   0.979153E-02
     0.008     0.299   0.954650E-02
     0.008     0.307   0.930742E-02
     0.008     0.315   0.907416E-02
     0.008     0.323   0.884660E-02
     0.008     0.331   0.862462E-02
     0.008     0.339   0.840811E-02
     0.008     0.346   0.819697E-02
     0.008     0.354   0.799111E-02
     0.008     0.362   0.779046E-02
     0.008     0.370   0.759496E-02
     0.008     0.378   0.740458E-02
     0.008     0.386   0.721931E-02
     0.008     0.394   0.703920E-02
     0.008     0.402   0.686434E-02
     0.008     0.409   0.669492E-02
     0.008     0.417   0.653126E-02
     0.008     0.425   0.637388E-02
     0.008     0.433   0.622361E-02
     0.008     0.441   0.608186E-02
     0.008     0.449   0.595097E-02
     0.008     0.457   0.583514E-02
     0.008     0.465   0.574220E-02
     0.008     0.472   0.568810E-02
     0.008     0.480   0.570812E-02
     0.008     0.488   0.588941E-02
     0.008     0.496   0.647335E-02
     0.008     0.504   0.821000E-02
     0.008     0.512   0.136888E-01
     0.008     0.520   0.795301E-02
     0.008     0.528   0.595922E-02
     0.008     0.535   0.511782E-02
     0.008     0.543   0.467860E-02
     0.008     0.551   0.440001E-02
     0.008     0.559   0.419476E-02
     0.008     0.567   0.402739E-02
     0.008     0.575   0.388182E-02
     0.008     0.583   0.375003E-02
     0.008     0.591   0.362769E-02
     0.008     0.598   0.351226E-02
     0.008     0.606   0.340220E-02
     0.008     0.614   0.329650E-02
     0.008     0.622   0.319449E-02
     0.008     0.630   0.309566E-02
     0.008     0.638   0.299968E-02
     0.008     0.646   0.290626E-02
     0.008     0.654   0.281521E-02
     0.008     0.661   0.272635E-02
     0.008     0.669   0.263955E-02
     0.008     0.677   0.255467E-02
     0.008     0.685   0.247162E-02
     0.008     0.693   0.239031E-02
     0.008     0.701   0.231065E-02
     0.008     0.709   0.223257E-02
     0.008     0.717   0.215600E-02
     0.008     0.724   0.208088E-02
     0.008     0.732   0.200714E-02
     0.008     0.740   0.193473E-02
     0.008     0.748   0.186359E-02
     0.008     0.756   0.179367E-02
     0.008     0.764   0.172492E-02
     0.008     0.772   0.165730E-02
     0.008     0.780   0.159075E-02
     0.008     0.787   0.152522E-02
     0.008     0.795   0.146069E-02
     0.008     0.803   0.139709E-02
     0.008     0.811   0.133439E-02
     0.008     0.819   0.127255E-02
     0.008     0.827   0.121153E-02
     0.008     0.835   0.115128E-02
     0.008     0.843   0.109177E-02
     0.008     0.850   0.103295E-02
     0.008     0.858   0.974802E-03
     0.008     0.866   0.917271E-03
     0.008     0.874   0.860328E-03
     0.008     0.882   0.803932E-03
     0.008     0.890   0.748051E-03
     0.008     0.898   0.692645E-03
     0.008     0.906   0.637682E-03
     0.008     0.913   0.583124E-03
     0.008     0.921   0.528939E-03
     0.008     0.929   0.475089E-03
     0.008     0.937   0.421543E-03
     0.008     0.945   0.368265E-03
     0.008     0.953   0.315222E-03
     0.008     0.961   0.262378E-03
     0.008     0.969   0.209703E-03
     0.008     0.976   0.157160E-03
     0.008     0.984   0.104718E-03
     0.008     0.992   0.523424E-04
     0.008     1.000    0.00000    
     0.016     0.000   0.494537E-01
     0.016     0.008   0.482395E-01
     0.016     0.016   0.470549E-01
     0.016     0.024   0.458990E-01
     0.016     0.031   0.447713E-01
     0.016     0.039   0.436709E-01
     0.016     0.047   0.425973E-01
     0.016     0.055   0.415497E-01
     0.016     0.063   0.405276E-01
     0.016     0.071   0.395303E-01
     0.016     0.079   0.385572E-01
     0.016     0.087   0.376078E-01
     0.016     0.094   0.366814E-01
     0.016     0.102   0.357774E-01
     0.016     0.110   0.348954E-01
     0.016     0.118   0.340347E-01
     0.016     0.126   0.331950E-01
     0.016     0.134   0.323755E-01
     0.016     0.142   0.315760E-01
     0.016     0.150   0.307958E-01
     0.016     0.157   0.300345E-01
     0.016     0.165   0.292916E-01
     0.016     0.173   0.285667E-01
     0.016     0.181   0.278593E-01
     0.016     0.189   0.271691E-01
     0.016     0.197   0.264956E-01
     0.016     0.205   0.258383E-01
     0.016     0.213   0.251969E-01
     0.016     0.220   0.245711E-01
     0.016     0.228   0.239603E-01
     0.016     0.236   0.233644E-01
     0.016     0.244   0.227828E-01
     0.016     0.252   0.222153E-01
     0.016     0.260   0.216615E-01
     0.016     0.268   0.211210E-01
     0.016     0.276   0.205937E-01
     0.016     0.283   0.200791E-01
     0.016     0.291   0.195770E-01
     0.016     0.299   0.190871E-01
     0.016     0.307   0.186091E-01
     0.016     0.315   0.181427E-01
     0.016     0.323   0.176877E-01
     0.016     0.331   0.172438E-01
     0.016     0.339   0.168109E-01
     0.016     0.346   0.163887E-01
     0.016     0.354   0.159771E-01
     0.016     0.362   0.155758E-01
     0.016     0.370   0.151848E-01
     0.016     0.378   0.148041E-01
     0.016     0.386   0.144335E-01
     0.016     0.394   0.140732E-01
     0.016     0.402   0.137233E-01
     0.016     0.409   0.133841E-01
     0.016     0.417   0.130563E-01
     0.016     0.425   0.127407E-01
     0.016     0.433   0.124388E-01
     0.016     0.441   0.121529E-01
     0.016     0.449   0.118869E-01
     0.016     0.457   0.116474E-01
     0.016     0.465   0.114456E-01
     0.016     0.472   0.113021E-01
     0.016     0.480   0.112550E-01
     0.016     0.488   0.113762E-01
     0.016     0.496   0.117940E-01
     0.016     0.504   0.126778E-01
     0.016     0.512   0.138579E-01
     0.016     0.520   0.121640E-01
     0.016     0.528   0.107661E-01
     0.016     0.535   0.983350E-02
     0.016     0.543   0.919658E-02
     0.016     0.551   0.872672E-02
     0.016     0.559   0.835168E-02
     0.016     0.567   0.803301E-02
     0.016     0.575   0.774988E-02
     0.016     0.583   0.749066E-02
     0.016     0.591   0.724848E-02
     0.016     0.598   0.701919E-02
     0.016     0.606   0.680008E-02
     0.016     0.614   0.658937E-02
     0.016     0.622   0.638581E-02
     0.016     0.630   0.618852E-02
     0.016     0.638   0.599681E-02
     0.016     0.646   0.581020E-02
     0.016     0.654   0.562826E-02
     0.016     0.661   0.545069E-02
     0.016     0.669   0.527719E-02
     0.016     0.677   0.510755E-02
     0.016     0.685   0.494153E-02
     0.016     0.693   0.477900E-02
     0.016     0.701   0.461975E-02
     0.016     0.709   0.446367E-02
     0.016     0.717   0.431059E-02
     0.016     0.724   0.416040E-02
     0.016     0.732   0.401298E-02
     0.016     0.740   0.386821E-02
     0.016     0.748   0.372598E-02
     0.016     0.756   0.358620E-02
     0.016     0.764   0.344875E-02
     0.016     0.772   0.331355E-02
     0.016     0.780   0.318049E-02
     0.016     0.787   0.304949E-02
     0.016     0.795   0.292045E-02
     0.016     0.803   0.279330E-02
     0.016     0.811   0.266794E-02
     0.016     0.819   0.254431E-02
     0.016     0.827   0.242229E-02
     0.016     0.835   0.230184E-02
     0.016     0.843   0.218285E-02
     0.016     0.850   0.206527E-02
     0.016     0.858   0.194899E-02
     0.016     0.866   0.183397E-02
     0.016     0.874   0.172012E-02
     0.016     0.882   0.160737E-02
     0.016     0.890   0.149564E-02
     0.016     0.898   0.138486E-02
     0.016     0.906   0.127497E-02
     0.016     0.913   0.116589E-02
     0.016     0.921   0.105755E-02
     0.016     0.929   0.949885E-03
     0.016     0.937   0.842824E-03
     0.016     0.945   0.736303E-03
     0.016     0.953   0.630248E-03
     0.016     0.961   0.524595E-03
     0.016     0.969   0.419276E-03
     0.016     0.976   0.314224E-03
     0.016     0.984   0.209371E-03
     0.016     0.992   0.104653E-03
     0.016     1.000    0.00000    
     0.024     0.000   0.741428E-01
     0.024     0.008   0.723224E-01
     0.024     0.016   0.705463E-01
     0.024     0.024   0.688134E-01
     0.024     0.031   0.671226E-01
     0.024     0.039   0.654729E-01
     0.024     0.047   0.638633E-01
     0.024     0.055   0.622928E-01
     0.024     0.063   0.607604E-01
     0.024     0.071   0.592652E-01
     0.024     0.079   0.578064E-01
     0.024     0.087   0.563829E-01
     0.024     0.094   0.549940E-01
     0.024     0.102   0.536387E-01
     0.024     0.110   0.523164E-01
     0.024     0.118   0.510261E-01
     0.024     0.126   0.497670E-01
     0.024     0.134   0.485385E-01
     0.024     0.142   0.473398E-01
     0.024     0.150   0.461701E-01
     0.024     0.157   0.450287E-01
     0.024     0.165   0.439150E-01
     0.024     0.173   0.428282E-01
     0.024     0.181   0.417677E-01
     0.024     0.189   0.407328E-01
     0.024     0.197   0.397230E-01
     0.024     0.205   0.387377E-01
     0.024     0.213   0.377761E-01
     0.024     0.220   0.368378E-01
     0.024     0.228   0.359221E-01
     0.024     0.236   0.350286E-01
     0.024     0.244   0.341567E-01
     0.024     0.252   0.333058E-01
     0.024     0.260   0.324755E-01
     0.024     0.268   0.316653E-01
     0.024     0.276   0.308747E-01
     0.024     0.283   0.301032E-01
     0.024     0.291   0.293504E-01
     0.024     0.299   0.286158E-01
     0.024     0.307   0.278991E-01
     0.024     0.315   0.271998E-01
     0.024     0.323   0.265176E-01
     0.024     0.331   0.258521E-01
     0.024     0.339   0.252030E-01
     0.024     0.346   0.245699E-01
     0.024     0.354   0.239527E-01
     0.024     0.362   0.233509E-01
     0.024     0.370   0.227646E-01
     0.024     0.378   0.221935E-01
     0.024     0.386   0.216375E-01
     0.024     0.394   0.210968E-01
     0.024     0.402   0.205715E-01
     0.024     0.409   0.200621E-01
     0.024     0.417   0.195692E-01
     0.024     0.425   0.190939E-01
     0.024     0.433   0.186379E-01
     0.024     0.441   0.182041E-01
     0.024     0.449   0.177965E-01
     0.024     0.457   0.174220E-01
     0.024     0.465   0.170909E-01
     0.024     0.472   0.168198E-01
     0.024     0.480   0.166337E-01
     0.024     0.488   0.165665E-01
     0.024     0.496   0.166488E-01
     0.024     0.504   0.168495E-01
     0.024     0.512   0.169012E-01
     0.024     0.520   0.160792E-01
     0.024     0.528   0.151077E-01
     0.024     0.535   0.142536E-01
     0.024     0.543   0.135476E-01
     0.024     0.551   0.129587E-01
     0.024     0.559   0.124523E-01
     0.024     0.567   0.120031E-01
     0.024     0.575   0.115941E-01
     0.024     0.583   0.112143E-01
     0.024     0.591   0.108565E-01
     0.024     0.598   0.105160E-01
     0.024     0.606   0.101896E-01
     0.024     0.614   0.987514E-02
     0.024     0.622   0.957095E-02
     0.024     0.630   0.927583E-02
     0.024     0.638   0.898894E-02
     0.024     0.646   0.870951E-02
     0.024     0.654   0.843704E-02
     0.024     0.661   0.817101E-02
     0.024     0.669   0.791106E-02
     0.024     0.677   0.765683E-02
     0.024     0.685   0.740806E-02
     0.024     0.693   0.716444E-02
     0.024     0.701   0.692577E-02
     0.024     0.709   0.669180E-02
     0.024     0.717   0.646235E-02
     0.024     0.724   0.623721E-02
     0.024     0.732   0.601623E-02
     0.024     0.740   0.579920E-02
     0.024     0.748   0.558600E-02
     0.024     0.756   0.537644E-02
     0.024     0.764   0.517039E-02
     0.024     0.772   0.496769E-02
     0.024     0.780   0.476822E-02
     0.024     0.787   0.457183E-02
     0.024     0.795   0.437839E-02
     0.024     0.803   0.418776E-02
     0.024     0.811   0.399983E-02
     0.024     0.819   0.381447E-02
     0.024     0.827   0.363155E-02
     0.024     0.835   0.345096E-02
     0.024     0.843   0.327258E-02
     0.024     0.850   0.309629E-02
     0.024     0.858   0.292198E-02
     0.024     0.866   0.274953E-02
     0.024     0.874   0.257885E-02
     0.024     0.882   0.240980E-02
     0.024     0.890   0.224230E-02
     0.024     0.898   0.207622E-02
     0.024     0.906   0.191147E-02
     0.024     0.913   0.174793E-02
     0.024     0.921   0.158551E-02
     0.024     0.929   0.142409E-02
     0.024     0.937   0.126359E-02
     0.024     0.945   0.110388E-02
     0.024     0.953   0.944885E-03
     0.024     0.961   0.786486E-03
     0.024     0.969   0.628590E-03
     0.024     0.976   0.471092E-03
     0.024     0.984   0.313896E-03
     0.024     0.992   0.156898E-03
     0.024     1.000    0.00000    
     0.031     0.000   0.987864E-01
     0.031     0.008   0.963610E-01
     0.031     0.016   0.939946E-01
     0.031     0.024   0.916857E-01
     0.031     0.031   0.894330E-01
     0.031     0.039   0.872349E-01
     0.031     0.047   0.850903E-01
     0.031     0.055   0.829978E-01
     0.031     0.063   0.809560E-01
     0.031     0.071   0.789639E-01
     0.031     0.079   0.770201E-01
     0.031     0.087   0.751235E-01
     0.031     0.094   0.732729E-01
     0.031     0.102   0.714672E-01
     0.031     0.110   0.697053E-01
     0.031     0.118   0.679861E-01
     0.031     0.126   0.663086E-01
     0.031     0.134   0.646718E-01
     0.031     0.142   0.630746E-01
     0.031     0.150   0.615161E-01
     0.031     0.157   0.599954E-01
     0.031     0.165   0.585114E-01
     0.031     0.173   0.570634E-01
     0.031     0.181   0.556504E-01
     0.031     0.189   0.542716E-01
     0.031     0.197   0.529262E-01
     0.031     0.205   0.516132E-01
     0.031     0.213   0.503321E-01
     0.031     0.220   0.490818E-01
     0.031     0.228   0.478618E-01
     0.031     0.236   0.466713E-01
     0.031     0.244   0.455096E-01
     0.031     0.252   0.443759E-01
     0.031     0.260   0.432696E-01
     0.031     0.268   0.421900E-01
     0.031     0.276   0.411366E-01
     0.031     0.283   0.401086E-01
     0.031     0.291   0.391056E-01
     0.031     0.299   0.381268E-01
     0.031     0.307   0.371718E-01
     0.031     0.315   0.362400E-01
     0.031     0.323   0.353310E-01
     0.031     0.331   0.344442E-01
     0.031     0.339   0.335792E-01
     0.031     0.346   0.327355E-01
     0.031     0.354   0.319128E-01
     0.031     0.362   0.311108E-01
     0.031     0.370   0.303292E-01
     0.031     0.378   0.295678E-01
     0.031     0.386   0.288264E-01
     0.031     0.394   0.281051E-01
     0.031     0.402   0.274041E-01
     0.031     0.409   0.267236E-01
     0.031     0.417   0.260645E-01
     0.031     0.425   0.254278E-01
     0.031     0.433   0.248151E-01
     0.031     0.441   0.242290E-01
     0.031     0.449   0.236733E-01
     0.031     0.457   0.231532E-01
     0.031     0.465   0.226763E-01
     0.031     0.472   0.222526E-01
     0.031     0.480   0.218935E-01
     0.031     0.488   0.216074E-01
     0.031     0.496   0.213852E-01
     0.031     0.504   0.211703E-01
     0.031     0.512   0.208182E-01
     0.031     0.520   0.201439E-01
     0.031     0.528   0.193318E-01
     0.031     0.535   0.185257E-01
     0.031     0.543   0.177817E-01
     0.031     0.551   0.171081E-01
     0.031     0.559   0.164959E-01
     0.031     0.567   0.159332E-01
     0.031     0.575   0.154093E-01
     0.031     0.583   0.149160E-01
     0.031     0.591   0.144473E-01
     0.031     0.598   0.139988E-01
     0.031     0.606   0.135674E-01
     0.031     0.614   0.131508E-01
     0.031     0.622   0.127471E-01
     0.031     0.630   0.123551E-01
     0.031     0.638   0.119737E-01
     0.031     0.646   0.116020E-01
     0.031     0.654   0.112394E-01
     0.031     0.661   0.108854E-01
     0.031     0.669   0.105393E-01
     0.031     0.677   0.102008E-01
     0.031     0.685   0.986949E-02
     0.031     0.693   0.954506E-02
     0.031     0.701   0.922715E-02
     0.031     0.709   0.891552E-02
     0.031     0.717   0.860987E-02
     0.031     0.724   0.830998E-02
     0.031     0.732   0.801558E-02
     0.031     0.740   0.772648E-02
     0.031     0.748   0.744243E-02
     0.031     0.756   0.716326E-02
     0.031     0.764   0.688874E-02
     0.031     0.772   0.661871E-02
     0.031     0.780   0.635294E-02
     0.031     0.787   0.609130E-02
     0.031     0.795   0.583356E-02
     0.031     0.803   0.557960E-02
     0.031     0.811   0.532921E-02
     0.031     0.819   0.508225E-02
     0.031     0.827   0.483854E-02
     0.031     0.835   0.459794E-02
     0.031     0.843   0.436026E-02
     0.031     0.850   0.412539E-02
     0.031     0.858   0.389314E-02
     0.031     0.866   0.366339E-02
     0.031     0.874   0.343597E-02
     0.031     0.882   0.321074E-02
     0.031     0.890   0.298756E-02
     0.031     0.898   0.276629E-02
     0.031     0.906   0.254677E-02
     0.031     0.913   0.232889E-02
     0.031     0.921   0.211248E-02
     0.031     0.929   0.189742E-02
     0.031     0.937   0.168356E-02
     0.031     0.945   0.147078E-02
     0.031     0.953   0.125894E-02
     0.031     0.961   0.104789E-02
     0.031     0.969   0.837514E-03
     0.031     0.976   0.627671E-03
     0.031     0.984   0.418225E-03
     0.031     0.992   0.209046E-03
     0.031     1.000    0.00000    
     0.039     0.000   0.123370    
     0.039     0.008   0.120341    
     0.039     0.016   0.117385    
     0.039     0.024   0.114502    
     0.039     0.031   0.111689    
     0.039     0.039   0.108944    
     0.039     0.047   0.106265    
     0.039     0.055   0.103652    
     0.039     0.063   0.101102    
     0.039     0.071   0.986142E-01
     0.039     0.079   0.961867E-01
     0.039     0.087   0.938181E-01
     0.039     0.094   0.915070E-01
     0.039     0.102   0.892520E-01
     0.039     0.110   0.870516E-01
     0.039     0.118   0.849046E-01
     0.039     0.126   0.828097E-01
     0.039     0.134   0.807655E-01
     0.039     0.142   0.787708E-01
     0.039     0.150   0.768245E-01
     0.039     0.157   0.749253E-01
     0.039     0.165   0.730720E-01
     0.039     0.173   0.712637E-01
     0.039     0.181   0.694991E-01
     0.039     0.189   0.677771E-01
     0.039     0.197   0.660968E-01
     0.039     0.205   0.644572E-01
     0.039     0.213   0.628572E-01
     0.039     0.220   0.612958E-01
     0.039     0.228   0.597722E-01
     0.039     0.236   0.582854E-01
     0.039     0.244   0.568345E-01
     0.039     0.252   0.554187E-01
     0.039     0.260   0.540370E-01
     0.039     0.268   0.526888E-01
     0.039     0.276   0.513731E-01
     0.039     0.283   0.500893E-01
     0.039     0.291   0.488366E-01
     0.039     0.299   0.476142E-01
     0.039     0.307   0.464214E-01
     0.039     0.315   0.452577E-01
     0.039     0.323   0.441222E-01
     0.039     0.331   0.430146E-01
     0.039     0.339   0.419341E-01
     0.039     0.346   0.408802E-01
     0.039     0.354   0.398525E-01
     0.039     0.362   0.388505E-01
     0.039     0.370   0.378738E-01
     0.039     0.378   0.369221E-01
     0.039     0.386   0.359953E-01
     0.039     0.394   0.350933E-01
     0.039     0.402   0.342161E-01
     0.039     0.409   0.333640E-01
     0.039     0.417   0.325376E-01
     0.039     0.425   0.317378E-01
     0.039     0.433   0.309659E-01
     0.039     0.441   0.302239E-01
     0.039     0.449   0.295145E-01
     0.039     0.457   0.288413E-01
     0.039     0.465   0.282086E-01
     0.039     0.472   0.276209E-01
     0.039     0.480   0.270806E-01
     0.039     0.488   0.265845E-01
     0.039     0.496   0.261146E-01
     0.039     0.504   0.256285E-01
     0.039     0.512   0.250574E-01
     0.039     0.520   0.243467E-01
     0.039     0.528   0.235503E-01
     0.039     0.535   0.227359E-01
     0.039     0.543   0.219456E-01
     0.039     0.551   0.211961E-01
     0.039     0.559   0.204903E-01
     0.039     0.567   0.198247E-01
     0.039     0.575   0.191941E-01
     0.039     0.583   0.185933E-01
     0.039     0.591   0.180180E-01
     0.039     0.598   0.174647E-01
     0.039     0.606   0.169306E-01
     0.039     0.614   0.164135E-01
     0.039     0.622   0.159117E-01
     0.039     0.630   0.154238E-01
     0.039     0.638   0.149488E-01
     0.039     0.646   0.144856E-01
     0.039     0.654   0.140335E-01
     0.039     0.661   0.135918E-01
     0.039     0.669   0.131601E-01
     0.039     0.677   0.127377E-01
     0.039     0.685   0.123242E-01
     0.039     0.693   0.119192E-01
     0.039     0.701   0.115224E-01
     0.039     0.709   0.111334E-01
     0.039     0.717   0.107518E-01
     0.039     0.724   0.103773E-01
     0.039     0.732   0.100098E-01
     0.039     0.740   0.964878E-02
     0.039     0.748   0.929413E-02
     0.039     0.756   0.894551E-02
     0.039     0.764   0.860274E-02
     0.039     0.772   0.826552E-02
     0.039     0.780   0.793367E-02
     0.039     0.787   0.760692E-02
     0.039     0.795   0.728509E-02
     0.039     0.803   0.696793E-02
     0.039     0.811   0.665526E-02
     0.039     0.819   0.634685E-02
     0.039     0.827   0.604251E-02
     0.039     0.835   0.574203E-02
     0.039     0.843   0.544524E-02
     0.039     0.850   0.515192E-02
     0.039     0.858   0.486189E-02
     0.039     0.866   0.457496E-02
     0.039     0.874   0.429096E-02
     0.039     0.882   0.400969E-02
     0.039     0.890   0.373098E-02
     0.039     0.898   0.345464E-02
     0.039     0.906   0.318051E-02
     0.039     0.913   0.290840E-02
     0.039     0.921   0.263815E-02
     0.039     0.929   0.236957E-02
     0.039     0.937   0.210250E-02
     0.039     0.945   0.183677E-02
     0.039     0.953   0.157221E-02
     0.039     0.961   0.130865E-02
     0.039     0.969   0.104592E-02
     0.039     0.976   0.783860E-03
     0.039     0.984   0.522297E-03
     0.039     0.992   0.261065E-03
     0.039     1.000    0.00000    
     0.047     0.000   0.147877    
     0.047     0.008   0.144247    
     0.047     0.016   0.140704    
     0.047     0.024   0.137248    
     0.047     0.031   0.133876    
     0.047     0.039   0.130585    
     0.047     0.047   0.127375    
     0.047     0.055   0.124243    
     0.047     0.063   0.121186    
     0.047     0.071   0.118204    
     0.047     0.079   0.115294    
     0.047     0.087   0.112455    
     0.047     0.094   0.109685    
     0.047     0.102   0.106982    
     0.047     0.110   0.104345    
     0.047     0.118   0.101771    
     0.047     0.126   0.992600E-01
     0.047     0.134   0.968097E-01
     0.047     0.142   0.944188E-01
     0.047     0.150   0.920858E-01
     0.047     0.157   0.898093E-01
     0.047     0.165   0.875879E-01
     0.047     0.173   0.854203E-01
     0.047     0.181   0.833051E-01
     0.047     0.189   0.812411E-01
     0.047     0.197   0.792270E-01
     0.047     0.205   0.772616E-01
     0.047     0.213   0.753437E-01
     0.047     0.220   0.734722E-01
     0.047     0.228   0.716459E-01
     0.047     0.236   0.698636E-01
     0.047     0.244   0.681245E-01
     0.047     0.252   0.664273E-01
     0.047     0.260   0.647712E-01
     0.047     0.268   0.631551E-01
     0.047     0.276   0.615780E-01
     0.047     0.283   0.600391E-01
     0.047     0.291   0.585374E-01
     0.047     0.299   0.570720E-01
     0.047     0.307   0.556422E-01
     0.047     0.315   0.542471E-01
     0.047     0.323   0.528859E-01
     0.047     0.331   0.515580E-01
     0.047     0.339   0.502625E-01
     0.047     0.346   0.489989E-01
     0.047     0.354   0.477666E-01
     0.047     0.362   0.465649E-01
     0.047     0.370   0.453935E-01
     0.047     0.378   0.442518E-01
     0.047     0.386   0.431397E-01
     0.047     0.394   0.420568E-01
     0.047     0.402   0.410032E-01
     0.047     0.409   0.399789E-01
     0.047     0.417   0.389844E-01
     0.047     0.425   0.380200E-01
     0.047     0.433   0.370869E-01
     0.047     0.441   0.361863E-01
     0.047     0.449   0.353198E-01
     0.047     0.457   0.344891E-01
     0.047     0.465   0.336962E-01
     0.047     0.472   0.329418E-01
     0.047     0.480   0.322239E-01
     0.047     0.488   0.315355E-01