Title="Temperature Data"
Variables="X","Y","T"
 
Zone I=    64, J=    64, F=POINT
     0.000     0.000    0.00000    
     0.000     0.016    0.00000    
     0.000     0.032    0.00000    
     0.000     0.048    0.00000    
     0.000     0.063    0.00000    
     0.000     0.079    0.00000    
     0.000     0.095    0.00000    
     0.000     0.111    0.00000    
     0.000     0.127    0.00000    
     0.000     0.143    0.00000    
     0.000     0.159    0.00000    
     0.000     0.175    0.00000    
     0.000     0.190    0.00000    
     0.000     0.206    0.00000    
     0.000     0.222    0.00000    
     0.000     0.238    0.00000    
     0.000     0.254    0.00000    
     0.000     0.270    0.00000    
     0.000     0.286    0.00000    
     0.000     0.302    0.00000    
     0.000     0.317    0.00000    
     0.000     0.333    0.00000    
     0.000     0.349    0.00000    
     0.000     0.365    0.00000    
     0.000     0.381    0.00000    
     0.000     0.397    0.00000    
     0.000     0.413    0.00000    
     0.000     0.429    0.00000    
     0.000     0.444    0.00000    
     0.000     0.460    0.00000    
     0.000     0.476    0.00000    
     0.000     0.492    0.00000    
     0.000     0.508    0.00000    
     0.000     0.524    0.00000    
     0.000     0.540    0.00000    
     0.000     0.556    0.00000    
     0.000     0.571    0.00000    
     0.000     0.587    0.00000    
     0.000     0.603    0.00000    
     0.000     0.619    0.00000    
     0.000     0.635    0.00000    
     0.000     0.651    0.00000    
     0.000     0.667    0.00000    
     0.000     0.683    0.00000    
     0.000     0.698    0.00000    
     0.000     0.714    0.00000    
     0.000     0.730    0.00000    
     0.000     0.746    0.00000    
     0.000     0.762    0.00000    
     0.000     0.778    0.00000    
     0.000     0.794    0.00000    
     0.000     0.810    0.00000    
     0.000     0.825    0.00000    
     0.000     0.841    0.00000    
     0.000     0.857    0.00000    
     0.000     0.873    0.00000    
     0.000     0.889    0.00000    
     0.000     0.905    0.00000    
     0.000     0.921    0.00000    
     0.000     0.937    0.00000    
     0.000     0.952    0.00000    
     0.000     0.968    0.00000    
     0.000     0.984    0.00000    
     0.000     1.000    0.00000    
     0.016     0.000   0.498459E-01
     0.016     0.016   0.170230E-01
     0.016     0.032   0.327324E-02
     0.016     0.048   0.354797E-03
     0.016     0.063   0.203190E-04
     0.016     0.079   0.479441E-06
     0.016     0.095    0.00000    
     0.016     0.111    0.00000    
     0.016     0.127    0.00000    
     0.016     0.143    0.00000    
     0.016     0.159    0.00000    
     0.016     0.175    0.00000    
     0.016     0.190    0.00000    
     0.016     0.206    0.00000    
     0.016     0.222    0.00000    
     0.016     0.238    0.00000    
     0.016     0.254    0.00000    
     0.016     0.270    0.00000    
     0.016     0.286    0.00000    
     0.016     0.302    0.00000    
     0.016     0.317    0.00000    
     0.016     0.333    0.00000    
     0.016     0.349    0.00000    
     0.016     0.365    0.00000    
     0.016     0.381    0.00000    
     0.016     0.397    0.00000    
     0.016     0.413    0.00000    
     0.016     0.429    0.00000    
     0.016     0.444    0.00000    
     0.016     0.460    0.00000    
     0.016     0.476    0.00000    
     0.016     0.492    0.00000    
     0.016     0.508    0.00000    
     0.016     0.524    0.00000    
     0.016     0.540    0.00000    
     0.016     0.556    0.00000    
     0.016     0.571    0.00000    
     0.016     0.587    0.00000    
     0.016     0.603    0.00000    
     0.016     0.619    0.00000    
     0.016     0.635    0.00000    
     0.016     0.651    0.00000    
     0.016     0.667    0.00000    
     0.016     0.683    0.00000    
     0.016     0.698    0.00000    
     0.016     0.714    0.00000    
     0.016     0.730    0.00000    
     0.016     0.746    0.00000    
     0.016     0.762    0.00000    
     0.016     0.778    0.00000    
     0.016     0.794    0.00000    
     0.016     0.810    0.00000    
     0.016     0.825    0.00000    
     0.016     0.841    0.00000    
     0.016     0.857    0.00000    
     0.016     0.873    0.00000    
     0.016     0.889    0.00000    
     0.016     0.905    0.00000    
     0.016     0.921    0.00000    
     0.016     0.937    0.00000    
     0.016     0.952    0.00000    
     0.016     0.968    0.00000    
     0.016     0.984    0.00000    
     0.016     1.000    0.00000    
     0.032     0.000   0.995678E-01
     0.032     0.016   0.340038E-01
     0.032     0.032   0.653834E-02
     0.032     0.048   0.708712E-03
     0.032     0.063   0.405874E-04
     0.032     0.079   0.957689E-06
     0.032     0.095    0.00000    
     0.032     0.111    0.00000    
     0.032     0.127    0.00000    
     0.032     0.143    0.00000    
     0.032     0.159    0.00000    
     0.032     0.175    0.00000    
     0.032     0.190    0.00000    
     0.032     0.206    0.00000    
     0.032     0.222    0.00000    
     0.032     0.238    0.00000    
     0.032     0.254    0.00000    
     0.032     0.270    0.00000    
     0.032     0.286    0.00000    
     0.032     0.302    0.00000    
     0.032     0.317    0.00000    
     0.032     0.333    0.00000    
     0.032     0.349    0.00000    
     0.032     0.365    0.00000    
     0.032     0.381    0.00000    
     0.032     0.397    0.00000    
     0.032     0.413    0.00000    
     0.032     0.429    0.00000    
     0.032     0.444    0.00000    
     0.032     0.460    0.00000    
     0.032     0.476    0.00000    
     0.032     0.492    0.00000    
     0.032     0.508    0.00000    
     0.032     0.524    0.00000    
     0.032     0.540    0.00000    
     0.032     0.556    0.00000    
     0.032     0.571    0.00000    
     0.032     0.587    0.00000    
     0.032     0.603    0.00000    
     0.032     0.619    0.00000    
     0.032     0.635    0.00000    
     0.032     0.651    0.00000    
     0.032     0.667    0.00000    
     0.032     0.683    0.00000    
     0.032     0.698    0.00000    
     0.032     0.714    0.00000    
     0.032     0.730    0.00000    
     0.032     0.746    0.00000    
     0.032     0.762    0.00000    
     0.032     0.778    0.00000    
     0.032     0.794    0.00000    
     0.032     0.810    0.00000    
     0.032     0.825    0.00000    
     0.032     0.841    0.00000    
     0.032     0.857    0.00000    
     0.032     0.873    0.00000    
     0.032     0.889    0.00000    
     0.032     0.905    0.00000    
     0.032     0.921    0.00000    
     0.032     0.937    0.00000    
     0.032     0.952    0.00000    
     0.032     0.968    0.00000    
     0.032     0.984    0.00000    
     0.032     1.000    0.00000    
     0.048     0.000   0.149042    
     0.048     0.016   0.509000E-01
     0.048     0.032   0.978719E-02
     0.048     0.048   0.106086E-02
     0.048     0.063   0.607550E-04
     0.048     0.079   0.143356E-05
     0.048     0.095    0.00000    
     0.048     0.111    0.00000    
     0.048     0.127    0.00000    
     0.048     0.143    0.00000    
     0.048     0.159    0.00000    
     0.048     0.175    0.00000    
     0.048     0.190    0.00000    
     0.048     0.206    0.00000    
     0.048     0.222    0.00000    
     0.048     0.238    0.00000    
     0.048     0.254    0.00000    
     0.048     0.270    0.00000    
     0.048     0.286    0.00000    
     0.048     0.302    0.00000    
     0.048     0.317    0.00000    
     0.048     0.333    0.00000    
     0.048     0.349    0.00000    
     0.048     0.365    0.00000    
     0.048     0.381    0.00000    
     0.048     0.397    0.00000    
     0.048     0.413    0.00000    
     0.048     0.429    0.00000    
     0.048     0.444    0.00000    
     0.048     0.460    0.00000    
     0.048     0.476    0.00000    
     0.048     0.492    0.00000    
     0.048     0.508    0.00000    
     0.048     0.524    0.00000    
     0.048     0.540    0.00000    
     0.048     0.556    0.00000    
     0.048     0.571    0.00000    
     0.048     0.587    0.00000    
     0.048     0.603    0.00000    
     0.048     0.619    0.00000    
     0.048     0.635    0.00000    
     0.048     0.651    0.00000    
     0.048     0.667    0.00000    
     0.048     0.683    0.00000    
     0.048     0.698    0.00000    
     0.048     0.714    0.00000    
     0.048     0.730    0.00000    
     0.048     0.746    0.00000    
     0.048     0.762    0.00000    
     0.048     0.778    0.00000    
     0.048     0.794    0.00000    
     0.048     0.810    0.00000    
     0.048     0.825    0.00000    
     0.048     0.841    0.00000    
     0.048     0.857    0.00000    
     0.048     0.873    0.00000    
     0.048     0.889    0.00000    
     0.048     0.905    0.00000    
     0.048     0.921    0.00000    
     0.048     0.937    0.00000    
     0.048     0.952    0.00000    
     0.048     0.968    0.00000    
     0.048     0.984    0.00000    
     0.048     1.000    0.00000    
     0.063     0.000   0.198146    
     0.063     0.016   0.676696E-01
     0.063     0.032   0.130117E-01
     0.063     0.048   0.141038E-02
     0.063     0.063   0.807715E-04
     0.063     0.079   0.190586E-05
     0.063     0.095    0.00000    
     0.063     0.111    0.00000    
     0.063     0.127    0.00000    
     0.063     0.143    0.00000    
     0.063     0.159    0.00000    
     0.063     0.175    0.00000    
     0.063     0.190    0.00000    
     0.063     0.206    0.00000    
     0.063     0.222    0.00000    
     0.063     0.238    0.00000    
     0.063     0.254    0.00000    
     0.063     0.270    0.00000    
     0.063     0.286    0.00000    
     0.063     0.302    0.00000    
     0.063     0.317    0.00000    
     0.063     0.333    0.00000    
     0.063     0.349    0.00000    
     0.063     0.365    0.00000    
     0.063     0.381    0.00000    
     0.063     0.397    0.00000    
     0.063     0.413    0.00000    
     0.063     0.429    0.00000    
     0.063     0.444    0.00000    
     0.063     0.460    0.00000    
     0.063     0.476    0.00000    
     0.063     0.492    0.00000    
     0.063     0.508    0.00000    
     0.063     0.524    0.00000    
     0.063     0.540    0.00000    
     0.063     0.556    0.00000    
     0.063     0.571    0.00000    
     0.063     0.587    0.00000    
     0.063     0.603    0.00000    
     0.063     0.619    0.00000    
     0.063     0.635    0.00000    
     0.063     0.651    0.00000    
     0.063     0.667    0.00000    
     0.063     0.683    0.00000    
     0.063     0.698    0.00000    
     0.063     0.714    0.00000    
     0.063     0.730    0.00000    
     0.063     0.746    0.00000    
     0.063     0.762    0.00000    
     0.063     0.778    0.00000    
     0.063     0.794    0.00000    
     0.063     0.810    0.00000    
     0.063     0.825    0.00000    
     0.063     0.841    0.00000    
     0.063     0.857    0.00000    
     0.063     0.873    0.00000    
     0.063     0.889    0.00000    
     0.063     0.905    0.00000    
     0.063     0.921    0.00000    
     0.063     0.937    0.00000    
     0.063     0.952    0.00000    
     0.063     0.968    0.00000    
     0.063     0.984    0.00000    
     0.063     1.000    0.00000    
     0.079     0.000   0.246757    
     0.079     0.016   0.842710E-01
     0.079     0.032   0.162039E-01
     0.079     0.048   0.175639E-02
     0.079     0.063   0.100587E-03
     0.079     0.079   0.237343E-05
     0.079     0.095    0.00000    
     0.079     0.111    0.00000    
     0.079     0.127    0.00000    
     0.079     0.143    0.00000    
     0.079     0.159    0.00000    
     0.079     0.175    0.00000    
     0.079     0.190    0.00000    
     0.079     0.206    0.00000    
     0.079     0.222    0.00000    
     0.079     0.238    0.00000    
     0.079     0.254    0.00000    
     0.079     0.270    0.00000    
     0.079     0.286    0.00000    
     0.079     0.302    0.00000    
     0.079     0.317    0.00000    
     0.079     0.333    0.00000    
     0.079     0.349    0.00000    
     0.079     0.365    0.00000    
     0.079     0.381    0.00000    
     0.079     0.397    0.00000    
     0.079     0.413    0.00000    
     0.079     0.429    0.00000    
     0.079     0.444    0.00000    
     0.079     0.460    0.00000    
     0.079     0.476    0.00000    
     0.079     0.492    0.00000    
     0.079     0.508    0.00000    
     0.079     0.524    0.00000    
     0.079     0.540    0.00000    
     0.079     0.556    0.00000    
     0.079     0.571    0.00000    
     0.079     0.587    0.00000    
     0.079     0.603    0.00000    
     0.079     0.619    0.00000    
     0.079     0.635    0.00000    
     0.079     0.651    0.00000    
     0.079     0.667    0.00000    
     0.079     0.683    0.00000    
     0.079     0.698    0.00000    
     0.079     0.714    0.00000    
     0.079     0.730    0.00000    
     0.079     0.746    0.00000    
     0.079     0.762    0.00000    
     0.079     0.778    0.00000    
     0.079     0.794    0.00000    
     0.079     0.810    0.00000    
     0.079     0.825    0.00000    
     0.079     0.841    0.00000    
     0.079     0.857    0.00000    
     0.079     0.873    0.00000    
     0.079     0.889    0.00000    
     0.079     0.905    0.00000    
     0.079     0.921    0.00000    
     0.079     0.937    0.00000    
     0.079     0.952    0.00000    
     0.079     0.968    0.00000    
     0.079     0.984    0.00000    
     0.079     1.000    0.00000    
     0.095     0.000   0.294755    
     0.095     0.016   0.100663    
     0.095     0.032   0.193557E-01
     0.095     0.048   0.209803E-02
     0.095     0.063   0.120153E-03
     0.095     0.079   0.283509E-05
     0.095     0.095    0.00000    
     0.095     0.111    0.00000    
     0.095     0.127    0.00000    
     0.095     0.143    0.00000    
     0.095     0.159    0.00000    
     0.095     0.175    0.00000    
     0.095     0.190    0.00000    
     0.095     0.206    0.00000    
     0.095     0.222    0.00000    
     0.095     0.238    0.00000    
     0.095     0.254    0.00000    
     0.095     0.270    0.00000    
     0.095     0.286    0.00000    
     0.095     0.302    0.00000    
     0.095     0.317    0.00000    
     0.095     0.333    0.00000    
     0.095     0.349    0.00000    
     0.095     0.365    0.00000    
     0.095     0.381    0.00000    
     0.095     0.397    0.00000    
     0.095     0.413    0.00000    
     0.095     0.429    0.00000    
     0.095     0.444    0.00000    
     0.095     0.460    0.00000    
     0.095     0.476    0.00000    
     0.095     0.492    0.00000    
     0.095     0.508    0.00000    
     0.095     0.524    0.00000    
     0.095     0.540    0.00000    
     0.095     0.556    0.00000    
     0.095     0.571    0.00000    
     0.095     0.587    0.00000    
     0.095     0.603    0.00000    
     0.095     0.619    0.00000    
     0.095     0.635    0.00000    
     0.095     0.651    0.00000    
     0.095     0.667    0.00000    
     0.095     0.683    0.00000    
     0.095     0.698    0.00000    
     0.095     0.714    0.00000    
     0.095     0.730    0.00000    
     0.095     0.746    0.00000    
     0.095     0.762    0.00000    
     0.095     0.778    0.00000    
     0.095     0.794    0.00000    
     0.095     0.810    0.00000    
     0.095     0.825    0.00000    
     0.095     0.841    0.00000    
     0.095     0.857    0.00000    
     0.095     0.873    0.00000    
     0.095     0.889    0.00000    
     0.095     0.905    0.00000    
     0.095     0.921    0.00000    
     0.095     0.937    0.00000    
     0.095     0.952    0.00000    
     0.095     0.968    0.00000    
     0.095     0.984    0.00000    
     0.095     1.000    0.00000    
     0.111     0.000   0.342020    
     0.111     0.016   0.116805    
     0.111     0.032   0.224595E-01
     0.111     0.048   0.243446E-02
     0.111     0.063   0.139420E-03
     0.111     0.079   0.328971E-05
     0.111     0.095    0.00000    
     0.111     0.111    0.00000    
     0.111     0.127    0.00000    
     0.111     0.143    0.00000    
     0.111     0.159    0.00000    
     0.111     0.175    0.00000    
     0.111     0.190    0.00000    
     0.111     0.206    0.00000    
     0.111     0.222    0.00000    
     0.111     0.238    0.00000    
     0.111     0.254    0.00000    
     0.111     0.270    0.00000    
     0.111     0.286    0.00000    
     0.111     0.302    0.00000    
     0.111     0.317    0.00000    
     0.111     0.333    0.00000    
     0.111     0.349    0.00000    
     0.111     0.365    0.00000    
     0.111     0.381    0.00000    
     0.111     0.397    0.00000    
     0.111     0.413    0.00000    
     0.111     0.429    0.00000    
     0.111     0.444    0.00000    
     0.111     0.460    0.00000    
     0.111     0.476    0.00000    
     0.111     0.492    0.00000    
     0.111     0.508    0.00000    
     0.111     0.524    0.00000    
     0.111     0.540    0.00000    
     0.111     0.556    0.00000    
     0.111     0.571    0.00000    
     0.111     0.587    0.00000    
     0.111     0.603    0.00000    
     0.111     0.619    0.00000    
     0.111     0.635    0.00000    
     0.111     0.651    0.00000    
     0.111     0.667    0.00000    
     0.111     0.683    0.00000    
     0.111     0.698    0.00000    
     0.111     0.714    0.00000    
     0.111     0.730    0.00000    
     0.111     0.746    0.00000    
     0.111     0.762    0.00000    
     0.111     0.778    0.00000    
     0.111     0.794    0.00000    
     0.111     0.810    0.00000    
     0.111     0.825    0.00000    
     0.111     0.841    0.00000    
     0.111     0.857    0.00000    
     0.111     0.873    0.00000    
     0.111     0.889    0.00000    
     0.111     0.905    0.00000    
     0.111     0.921    0.00000    
     0.111     0.937    0.00000    
     0.111     0.952    0.00000    
     0.111     0.968    0.00000    
     0.111     0.984    0.00000    
     0.111     1.000    0.00000    
     0.127     0.000   0.388435    
     0.127     0.016   0.132656    
     0.127     0.032   0.255074E-01
     0.127     0.048   0.276483E-02
     0.127     0.063   0.158340E-03
     0.127     0.079   0.373614E-05
     0.127     0.095    0.00000    
     0.127     0.111    0.00000    
     0.127     0.127    0.00000    
     0.127     0.143    0.00000    
     0.127     0.159    0.00000    
     0.127     0.175    0.00000    
     0.127     0.190    0.00000    
     0.127     0.206    0.00000    
     0.127     0.222    0.00000    
     0.127     0.238    0.00000    
     0.127     0.254    0.00000    
     0.127     0.270    0.00000    
     0.127     0.286    0.00000    
     0.127     0.302    0.00000    
     0.127     0.317    0.00000    
     0.127     0.333    0.00000    
     0.127     0.349    0.00000    
     0.127     0.365    0.00000    
     0.127     0.381    0.00000    
     0.127     0.397    0.00000    
     0.127     0.413    0.00000    
     0.127     0.429    0.00000    
     0.127     0.444    0.00000    
     0.127     0.460    0.00000    
     0.127     0.476    0.00000    
     0.127     0.492    0.00000    
     0.127     0.508    0.00000    
     0.127     0.524    0.00000    
     0.127     0.540    0.00000    
     0.127     0.556    0.00000    
     0.127     0.571    0.00000    
     0.127     0.587    0.00000    
     0.127     0.603    0.00000    
     0.127     0.619    0.00000    
     0.127     0.635    0.00000    
     0.127     0.651    0.00000    
     0.127     0.667    0.00000    
     0.127     0.683    0.00000    
     0.127     0.698    0.00000    
     0.127     0.714    0.00000    
     0.127     0.730    0.00000    
     0.127     0.746    0.00000    
     0.127     0.762    0.00000    
     0.127     0.778    0.00000    
     0.127     0.794    0.00000    
     0.127     0.810    0.00000    
     0.127     0.825    0.00000    
     0.127     0.841    0.00000    
     0.127     0.857    0.00000    
     0.127     0.873    0.00000    
     0.127     0.889    0.00000    
     0.127     0.905    0.00000    
     0.127     0.921    0.00000    
     0.127     0.937    0.00000    
     0.127     0.952    0.00000    
     0.127     0.968    0.00000    
     0.127     0.984    0.00000    
     0.127     1.000    0.00000    
     0.143     0.000   0.433884    
     0.143     0.016   0.148177    
     0.143     0.032   0.284919E-01
     0.143     0.048   0.308833E-02
     0.143     0.063   0.176867E-03
     0.143     0.079   0.417329E-05
     0.143     0.095    0.00000    
     0.143     0.111    0.00000    
     0.143     0.127    0.00000    
     0.143     0.143    0.00000    
     0.143     0.159    0.00000    
     0.143     0.175    0.00000    
     0.143     0.190    0.00000    
     0.143     0.206    0.00000    
     0.143     0.222    0.00000    
     0.143     0.238    0.00000    
     0.143     0.254    0.00000    
     0.143     0.270    0.00000    
     0.143     0.286    0.00000    
     0.143     0.302    0.00000    
     0.143     0.317    0.00000    
     0.143     0.333    0.00000    
     0.143     0.349    0.00000    
     0.143     0.365    0.00000    
     0.143     0.381    0.00000    
     0.143     0.397    0.00000    
     0.143     0.413    0.00000    
     0.143     0.429    0.00000    
     0.143     0.444    0.00000    
     0.143     0.460    0.00000    
     0.143     0.476    0.00000    
     0.143     0.492    0.00000    
     0.143     0.508    0.00000    
     0.143     0.524    0.00000    
     0.143     0.540    0.00000    
     0.143     0.556    0.00000    
     0.143     0.571    0.00000    
     0.143     0.587    0.00000    
     0.143     0.603    0.00000    
     0.143     0.619    0.00000    
     0.143     0.635    0.00000    
     0.143     0.651    0.00000    
     0.143     0.667    0.00000    
     0.143     0.683    0.00000    
     0.143     0.698    0.00000    
     0.143     0.714    0.00000    
     0.143     0.730    0.00000    
     0.143     0.746    0.00000    
     0.143     0.762    0.00000    
     0.143     0.778    0.00000    
     0.143     0.794    0.00000    
     0.143     0.810    0.00000    
     0.143     0.825    0.00000    
     0.143     0.841    0.00000    
     0.143     0.857    0.00000    
     0.143     0.873    0.00000    
     0.143     0.889    0.00000    
     0.143     0.905    0.00000    
     0.143     0.921    0.00000    
     0.143     0.937    0.00000    
     0.143     0.952    0.00000    
     0.143     0.968    0.00000    
     0.143     0.984    0.00000    
     0.143     1.000    0.00000    
     0.159     0.000   0.478254    
     0.159     0.016   0.163330    
     0.159     0.032   0.314056E-01
     0.159     0.048   0.340415E-02
     0.159     0.063   0.194953E-03
     0.159     0.079   0.460007E-05
     0.159     0.095    0.00000    
     0.159     0.111    0.00000    
     0.159     0.127    0.00000    
     0.159     0.143    0.00000    
     0.159     0.159    0.00000    
     0.159     0.175    0.00000    
     0.159     0.190    0.00000    
     0.159     0.206    0.00000    
     0.159     0.222    0.00000    
     0.159     0.238    0.00000    
     0.159     0.254    0.00000    
     0.159     0.270    0.00000    
     0.159     0.286    0.00000    
     0.159     0.302    0.00000    
     0.159     0.317    0.00000    
     0.159     0.333    0.00000    
     0.159     0.349    0.00000    
     0.159     0.365    0.00000    
     0.159     0.381    0.00000    
     0.159     0.397    0.00000    
     0.159     0.413    0.00000    
     0.159     0.429    0.00000    
     0.159     0.444    0.00000    
     0.159     0.460    0.00000    
     0.159     0.476    0.00000    
     0.159     0.492    0.00000    
     0.159     0.508    0.00000    
     0.159     0.524    0.00000    
     0.159     0.540    0.00000    
     0.159     0.556    0.00000    
     0.159     0.571    0.00000    
     0.159     0.587    0.00000    
     0.159     0.603    0.00000    
     0.159     0.619    0.00000    
     0.159     0.635    0.00000    
     0.159     0.651    0.00000    
     0.159     0.667    0.00000    
     0.159     0.683    0.00000    
     0.159     0.698    0.00000    
     0.159     0.714    0.00000    
     0.159     0.730    0.00000    
     0.159     0.746    0.00000    
     0.159     0.762    0.00000    
     0.159     0.778    0.00000    
     0.159     0.794    0.00000    
     0.159     0.810    0.00000    
     0.159     0.825    0.00000    
     0.159     0.841    0.00000    
     0.159     0.857    0.00000    
     0.159     0.873    0.00000    
     0.159     0.889    0.00000    
     0.159     0.905    0.00000    
     0.159     0.921    0.00000    
     0.159     0.937    0.00000    
     0.159     0.952    0.00000    
     0.159     0.968    0.00000    
     0.159     0.984    0.00000    
     0.159     1.000    0.00000    
     0.175     0.000   0.521435    
     0.175     0.016   0.178077    
     0.175     0.032   0.342412E-01
     0.175     0.048   0.371151E-02
     0.175     0.063   0.212556E-03
     0.175     0.079   0.501540E-05
     0.175     0.095    0.00000    
     0.175     0.111    0.00000    
     0.175     0.127    0.00000    
     0.175     0.143    0.00000    
     0.175     0.159    0.00000    
     0.175     0.175    0.00000    
     0.175     0.190    0.00000    
     0.175     0.206    0.00000    
     0.175     0.222    0.00000    
     0.175     0.238    0.00000    
     0.175     0.254    0.00000    
     0.175     0.270    0.00000    
     0.175     0.286    0.00000    
     0.175     0.302    0.00000    
     0.175     0.317    0.00000    
     0.175     0.333    0.00000    
     0.175     0.349    0.00000    
     0.175     0.365    0.00000    
     0.175     0.381    0.00000    
     0.175     0.397    0.00000    
     0.175     0.413    0.00000    
     0.175     0.429    0.00000    
     0.175     0.444    0.00000    
     0.175     0.460    0.00000    
     0.175     0.476    0.00000    
     0.175     0.492    0.00000    
     0.175     0.508    0.00000    
     0.175     0.524    0.00000    
     0.175     0.540    0.00000    
     0.175     0.556    0.00000    
     0.175     0.571    0.00000    
     0.175     0.587    0.00000    
     0.175     0.603    0.00000    
     0.175     0.619    0.00000    
     0.175     0.635    0.00000    
     0.175     0.651    0.00000    
     0.175     0.667    0.00000    
     0.175     0.683    0.00000    
     0.175     0.698    0.00000    
     0.175     0.714    0.00000    
     0.175     0.730    0.00000    
     0.175     0.746    0.00000    
     0.175     0.762    0.00000    
     0.175     0.778    0.00000    
     0.175     0.794    0.00000    
     0.175     0.810    0.00000    
     0.175     0.825    0.00000    
     0.175     0.841    0.00000    
     0.175     0.857    0.00000    
     0.175     0.873    0.00000    
     0.175     0.889    0.00000    
     0.175     0.905    0.00000    
     0.175     0.921    0.00000    
     0.175     0.937    0.00000    
     0.175     0.952    0.00000    
     0.175     0.968    0.00000    
     0.175     0.984    0.00000    
     0.175     1.000    0.00000    
     0.190     0.000   0.563320    
     0.190     0.016   0.192381    
     0.190     0.032   0.369916E-01
     0.190     0.048   0.400964E-02
     0.190     0.063   0.229629E-03
     0.190     0.079   0.541827E-05
     0.190     0.095    0.00000    
     0.190     0.111    0.00000    
     0.190     0.127    0.00000    
     0.190     0.143    0.00000    
     0.190     0.159    0.00000    
     0.190     0.175    0.00000    
     0.190     0.190    0.00000    
     0.190     0.206    0.00000    
     0.190     0.222    0.00000    
     0.190     0.238    0.00000    
     0.190     0.254    0.00000    
     0.190     0.270    0.00000    
     0.190     0.286    0.00000    
     0.190     0.302    0.00000    
     0.190     0.317    0.00000    
     0.190     0.333    0.00000    
     0.190     0.349    0.00000    
     0.190     0.365    0.00000    
     0.190     0.381    0.00000    
     0.190     0.397    0.00000    
     0.190     0.413    0.00000    
     0.190     0.429    0.00000    
     0.190     0.444    0.00000    
     0.190     0.460    0.00000    
     0.190     0.476    0.00000    
     0.190     0.492    0.00000    
     0.190     0.508    0.00000    
     0.190     0.524    0.00000    
     0.190     0.540    0.00000    
     0.190     0.556    0.00000    
     0.190     0.571    0.00000    
     0.190     0.587    0.00000    
     0.190     0.603    0.00000    
     0.190     0.619    0.00000    
     0.190     0.635    0.00000    
     0.190     0.651    0.00000    
     0.190     0.667    0.00000    
     0.190     0.683    0.00000    
     0.190     0.698    0.00000    
     0.190     0.714    0.00000    
     0.190     0.730    0.00000    
     0.190     0.746    0.00000    
     0.190     0.762    0.00000    
     0.190     0.778    0.00000    
     0.190     0.794    0.00000    
     0.190     0.810    0.00000    
     0.190     0.825    0.00000    
     0.190     0.841    0.00000    
     0.190     0.857    0.00000    
     0.190     0.873    0.00000    
     0.190     0.889    0.00000    
     0.190     0.905    0.00000    
     0.190     0.921    0.00000    
     0.190     0.937    0.00000    
     0.190     0.952    0.00000    
     0.190     0.968    0.00000    
     0.190     0.984    0.00000    