Title="Temperature Data"
Variables="X","Y","T"
 
Zone I=   100, J=   100, F=POINT
     0.000     0.000   0.692304-309
     0.000     0.010   0.466992-309
     0.000     0.020    0.00000    
     0.000     0.030    0.00000    
     0.000     0.040   0.601347-153
     0.000     0.051   0.603687-153
     0.000     0.061   0.860243E-66
     0.000     0.071   0.139737E-75
     0.000     0.081   0.655491-259
     0.000     0.091   0.130371E-75
     0.000     0.101   0.696312E-76
     0.000     0.111   0.601347-153
     0.000     0.121   0.120737-152
     0.000     0.131   0.601347-153
     0.000     0.141   0.603687-153
     0.000     0.152   0.934427E-66
     0.000     0.162   0.139737E-75
     0.000     0.172   0.655491-259
     0.000     0.182   0.130371E-75
     0.000     0.192   0.696312E-76
     0.000     0.202   0.601347-153
     0.000     0.212   0.120737-152
     0.000     0.222   0.601347-153
     0.000     0.232   0.603687-153
     0.000     0.242   0.637836E-66
     0.000     0.253   0.139737E-75
     0.000     0.263   0.655491-259
     0.000     0.273   0.130371E-75
     0.000     0.283   0.696312E-76
     0.000     0.293   0.601347-153
     0.000     0.303   0.120737-152
     0.000     0.313   0.601347-153
     0.000     0.323   0.603687-153
     0.000     0.333   0.712020E-66
     0.000     0.343   0.139737E-75
     0.000     0.354   0.655491-259
     0.000     0.364   0.130371E-75
     0.000     0.374   0.696312E-76
     0.000     0.384   0.601347-153
     0.000     0.394   0.120737-152
     0.000     0.404   0.601347-153
     0.000     0.414   0.603687-153
     0.000     0.424   0.515247E-61
     0.000     0.434   0.139737E-75
     0.000     0.444   0.655491-259
     0.000     0.455   0.130371E-75
     0.000     0.465   0.696312E-76
     0.000     0.475   0.601347-153
     0.000     0.485   0.120737-152
     0.000     0.495   0.601347-153
     0.000     0.505   0.603687-153
     0.000     0.515   0.563864E-61
     0.000     0.525   0.139737E-75
     0.000     0.535   0.655491-259
     0.000     0.545   0.130371E-75
     0.000     0.556   0.696312E-76
     0.000     0.566   0.601347-153
     0.000     0.576   0.120737-152
     0.000     0.586   0.601347-153
     0.000     0.596   0.603687-153
     0.000     0.606   0.612481E-61
     0.000     0.616   0.139737E-75
     0.000     0.626   0.655491-259
     0.000     0.636   0.130371E-75
     0.000     0.646   0.696312E-76
     0.000     0.657   0.601347-153
     0.000     0.667   0.120737-152
     0.000     0.677   0.601347-153
     0.000     0.687   0.603687-153
     0.000     0.697   0.418107E-61
     0.000     0.707   0.139737E-75
     0.000     0.717   0.655491-259
     0.000     0.727   0.130371E-75
     0.000     0.737   0.696312E-76
     0.000     0.747   0.601347-153
     0.000     0.758   0.120737-152
     0.000     0.768   0.601347-153
     0.000     0.778   0.603687-153
     0.000     0.788   0.466724E-61
     0.000     0.798   0.139737E-75
     0.000     0.808   0.655491-259
     0.000     0.818   0.130371E-75
     0.000     0.828   0.696312E-76
     0.000     0.838   0.601347-153
     0.000     0.848   0.120737-152
     0.000     0.859   0.601347-153
     0.000     0.869   0.603687-153
     0.000     0.879   0.337734E-56
     0.000     0.889   0.139737E-75
     0.000     0.899   0.655491-259
     0.000     0.909   0.130371E-75
     0.000     0.919   0.696312E-76
     0.000     0.929   0.601347-153
     0.000     0.939   0.120737-152
     0.000     0.949   0.601347-153
     0.000     0.960   0.603687-153
     0.000     0.970   0.369596E-56
     0.000     0.980   0.139737E-75
     0.000     0.990   0.655491-259
     0.000     1.000   0.130371E-75
     0.010     0.000   0.696312E-76
     0.010     0.010   0.203049E-05
     0.010     0.020   0.167955E-06
     0.010     0.030   0.694399E-08
     0.010     0.040   0.191266E-09
     0.010     0.051   0.394804E-11
     0.010     0.061   0.651401E-13
     0.010     0.071   0.894860E-15
     0.010     0.081   0.105276E-16
     0.010     0.091   0.108274E-18
     0.010     0.101   0.988949E-21
     0.010     0.111   0.812219E-23
     0.010     0.121   0.605877E-25
     0.010     0.131   0.413916E-27
     0.010     0.141   0.260784E-29
     0.010     0.152   0.152429E-31
     0.010     0.162   0.830790E-34
     0.010     0.172   0.424119E-36
     0.010     0.182   0.203590E-38
     0.010     0.192   0.922151E-41
     0.010     0.202   0.395335E-43
     0.010     0.212   0.160861E-45
     0.010     0.222   0.622798E-48
     0.010     0.232   0.229952E-50
     0.010     0.242   0.811373E-53
     0.010     0.253   0.274105E-55
     0.010     0.263   0.888142E-58
     0.010     0.273   0.276446E-60
     0.010     0.283   0.827836E-63
     0.010     0.293   0.238825E-65
     0.010     0.303   0.664665E-68
     0.010     0.313   0.479055E-70
     0.010     0.323   0.136589E-68
     0.010     0.333   0.423072E-67
     0.010     0.343   0.136585E-68
     0.010     0.354   0.300438E-70
     0.010     0.364   0.551136E-72
     0.010     0.374   0.538794E-71
     0.010     0.384   0.482848E-69
     0.010     0.394   0.361599E-67
     0.010     0.404   0.217406E-65
     0.010     0.414   0.988382E-64
     0.010     0.424   0.306152E-62
     0.010     0.434   0.988382E-64
     0.010     0.444   0.217406E-65
     0.010     0.455   0.361600E-67
     0.010     0.465   0.488737E-69
     0.010     0.475   0.533790E-69
     0.010     0.485   0.395719E-67
     0.010     0.495   0.237920E-65
     0.010     0.505   0.108164E-63
     0.010     0.515   0.335040E-62
     0.010     0.525   0.108164E-63
     0.010     0.535   0.237920E-65
     0.010     0.545   0.395719E-67
     0.010     0.556   0.534806E-69
     0.010     0.566   0.579858E-69
     0.010     0.576   0.429839E-67
     0.010     0.586   0.258434E-65
     0.010     0.596   0.117490E-63
     0.010     0.606   0.363927E-62
     0.010     0.616   0.117490E-63
     0.010     0.626   0.258434E-65
     0.010     0.636   0.429838E-67
     0.010     0.646   0.578336E-69
     0.010     0.657   0.398214E-69
     0.010     0.667   0.293427E-67
     0.010     0.677   0.176419E-65
     0.010     0.687   0.802042E-64
     0.010     0.697   0.248433E-62
     0.010     0.707   0.802042E-64
     0.010     0.717   0.176419E-65
     0.010     0.727   0.293427E-67
     0.010     0.737   0.396691E-69
     0.010     0.747   0.441744E-69
     0.010     0.758   0.327547E-67
     0.010     0.768   0.196932E-65
     0.010     0.778   0.895303E-64
     0.010     0.788   0.277321E-62
     0.010     0.798   0.895303E-64
     0.010     0.808   0.196935E-65
     0.010     0.818   0.361260E-67
     0.010     0.828   0.353169E-66
     0.010     0.838   0.316498E-64
     0.010     0.848   0.237021E-62
     0.010     0.859   0.142506E-60
     0.010     0.869   0.647866E-59
     0.010     0.879   0.200677E-57
     0.010     0.889   0.647866E-59
     0.010     0.899   0.142506E-60
     0.010     0.909   0.237022E-62
     0.010     0.919   0.320358E-64
     0.010     0.929   0.349884E-64
     0.010     0.939   0.259382E-62
     0.010     0.949   0.155950E-60
     0.010     0.960   0.708985E-59
     0.010     0.970   0.219609E-57
     0.010     0.980   0.708985E-59
     0.010     0.990   0.155915E-60
     0.010     1.000   0.696312E-76
     0.020     0.000   0.601347-153
     0.020     0.010   0.405893E-05
     0.020     0.020   0.335741E-06
     0.020     0.030   0.138810E-07
     0.020     0.040   0.382340E-09
     0.020     0.051   0.789211E-11
     0.020     0.061   0.130215E-12
     0.020     0.071   0.178882E-14
     0.020     0.081   0.210446E-16
     0.020     0.091   0.216439E-18
     0.020     0.101   0.197690E-20
     0.020     0.111   0.162362E-22
     0.020     0.121   0.121114E-24
     0.020     0.131   0.827415E-27
     0.020     0.141   0.521305E-29
     0.020     0.152   0.304704E-31
     0.020     0.162   0.166074E-33
     0.020     0.172   0.847812E-36
     0.020     0.182   0.406975E-38
     0.020     0.192   0.184337E-40
     0.020     0.202   0.790272E-43
     0.020     0.212   0.321561E-45
     0.020     0.222   0.124497E-47
     0.020     0.232   0.459673E-50
     0.020     0.242   0.162193E-52
     0.020     0.253   0.547935E-55
     0.020     0.263   0.177539E-57
     0.020     0.273   0.552614E-60
     0.020     0.283   0.165484E-62
     0.020     0.293   0.477410E-65
     0.020     0.303   0.132856E-67
     0.020     0.313   0.372049E-70
     0.020     0.323   0.601796E-70
     0.020     0.333   0.136685E-68
     0.020     0.343   0.600868E-70
     0.020     0.354   0.149874E-71
     0.020     0.364   0.296897E-73
     0.020     0.374   0.308820E-72
     0.020     0.384   0.268943E-70
     0.020     0.394   0.193067E-68
     0.020     0.404   0.108453E-66
     0.020     0.414   0.434812E-65
     0.020     0.424   0.989105E-64
     0.020     0.434   0.434812E-65
     0.020     0.444   0.108453E-66
     0.020     0.455   0.193068E-68
     0.020     0.465   0.272318E-70
     0.020     0.475   0.297404E-70
     0.020     0.485   0.211285E-68
     0.020     0.495   0.118686E-66
     0.020     0.505   0.475840E-65
     0.020     0.515   0.108243E-63
     0.020     0.525   0.475840E-65
     0.020     0.535   0.118686E-66
     0.020     0.545   0.211285E-68
     0.020     0.556   0.297986E-70
     0.020     0.566   0.323072E-70
     0.020     0.576   0.229502E-68
     0.020     0.586   0.128919E-66
     0.020     0.596   0.516868E-65
     0.020     0.606   0.117576E-63
     0.020     0.616   0.516868E-65
     0.020     0.626   0.128919E-66
     0.020     0.636   0.229502E-68
     0.020     0.646   0.322199E-70
     0.020     0.657   0.221905E-70
     0.020     0.667   0.156669E-68
     0.020     0.677   0.880062E-67
     0.020     0.687   0.352837E-65
     0.020     0.697   0.802629E-64
     0.020     0.707   0.352837E-65
     0.020     0.717   0.880062E-67
     0.020     0.727   0.156669E-68
     0.020     0.737   0.221033E-70
     0.020     0.747   0.246119E-70
     0.020     0.758   0.174886E-68
     0.020     0.768   0.982395E-67
     0.020     0.778   0.393865E-65
     0.020     0.788   0.895958E-64
     0.020     0.798   0.393865E-65
     0.020     0.808   0.982412E-67
     0.020     0.818   0.194612E-68
     0.020     0.828   0.202425E-67
     0.020     0.838   0.176287E-65
     0.020     0.848   0.126552E-63
     0.020     0.859   0.710887E-62
     0.020     0.869   0.285011E-60
     0.020     0.879   0.648339E-59
     0.020     0.889   0.285011E-60
     0.020     0.899   0.710887E-62
     0.020     0.909   0.126552E-63
     0.020     0.919   0.178499E-65
     0.020     0.929   0.194940E-65
     0.020     0.939   0.138491E-63
     0.020     0.949   0.777952E-62
     0.020     0.960   0.311899E-60
     0.020     0.970   0.709504E-59
     0.020     0.980   0.311899E-60
     0.020     0.990   0.777760E-62
     0.020     1.000   0.601347-153
     0.030     0.000   0.120737-152
     0.030     0.010   0.608329E-05
     0.030     0.020   0.503189E-06
     0.030     0.030   0.208040E-07
     0.030     0.040   0.573028E-09
     0.030     0.051   0.118282E-10
     0.030     0.061   0.195158E-12
     0.030     0.071   0.268098E-14
     0.030     0.081   0.315404E-16
     0.030     0.091   0.324386E-18
     0.030     0.101   0.296287E-20
     0.030     0.111   0.243339E-22
     0.030     0.121   0.181519E-24
     0.030     0.131   0.124008E-26
     0.030     0.141   0.781301E-29
     0.030     0.152   0.456672E-31
     0.030     0.162   0.248902E-33
     0.030     0.172   0.127065E-35
     0.030     0.182   0.609951E-38
     0.030     0.192   0.276274E-40
     0.030     0.202   0.118441E-42
     0.030     0.212   0.481936E-45
     0.030     0.222   0.186589E-47
     0.030     0.232   0.688931E-50
     0.030     0.242   0.243085E-52
     0.030     0.253   0.821212E-55
     0.030     0.263   0.266085E-57
     0.030     0.273   0.828225E-60
     0.030     0.283   0.248018E-62
     0.030     0.293   0.715513E-65
     0.030     0.303   0.199117E-67
     0.030     0.313   0.535544E-70
     0.030     0.323   0.163814E-71
     0.030     0.333   0.300771E-70
     0.030     0.343   0.149908E-71
     0.030     0.354   0.400208E-73
     0.030     0.364   0.832657E-75
     0.030     0.374   0.903691E-74
     0.030     0.384   0.770986E-72
     0.030     0.394   0.537825E-70
     0.030     0.404   0.289601E-68
     0.030     0.414   0.108480E-66
     0.030     0.424   0.217648E-65
     0.030     0.434   0.108480E-66
     0.030     0.444   0.289601E-68
     0.030     0.455   0.537826E-70
     0.030     0.465   0.780864E-72
     0.030     0.475   0.852761E-72
     0.030     0.485   0.588574E-70
     0.030     0.495   0.316927E-68
     0.030     0.505   0.118716E-66
     0.030     0.515   0.238184E-65
     0.030     0.525   0.118716E-66
     0.030     0.535   0.316927E-68
     0.030     0.545   0.588574E-70
     0.030     0.556   0.854464E-72
     0.030     0.566   0.926361E-72
     0.030     0.576   0.639322E-70
     0.030     0.586   0.344253E-68
     0.030     0.596   0.128951E-66
     0.030     0.606   0.258721E-65
     0.030     0.616   0.128951E-66
     0.030     0.626   0.344253E-68
     0.030     0.636   0.639322E-70
     0.030     0.646   0.923807E-72
     0.030     0.657   0.636362E-72
     0.030     0.667   0.436430E-70
     0.030     0.677   0.235003E-68
     0.030     0.687   0.880280E-67
     0.030     0.697   0.176614E-65
     0.030     0.707   0.880280E-67
     0.030     0.717   0.235003E-68
     0.030     0.727   0.436430E-70
     0.030     0.737   0.633808E-72
     0.030     0.747   0.705705E-72
     0.030     0.758   0.487177E-70
     0.030     0.768   0.262329E-68
     0.030     0.778   0.982638E-67
     0.030     0.788   0.197151E-65
     0.030     0.798   0.982638E-67
     0.030     0.808   0.262334E-68
     0.030     0.818   0.545797E-70
     0.030     0.828   0.592352E-69
     0.030     0.838   0.505367E-67
     0.030     0.848   0.352534E-65
     0.030     0.859   0.189828E-63
     0.030     0.869   0.711064E-62
     0.030     0.879   0.142664E-60
     0.030     0.889   0.711064E-62
     0.030     0.899   0.189828E-63
     0.030     0.909   0.352535E-65
     0.030     0.919   0.511841E-67
     0.030     0.929   0.558959E-67
     0.030     0.939   0.385793E-65
     0.030     0.949   0.207736E-63
     0.030     0.960   0.778145E-62
     0.030     0.970   0.156123E-60
     0.030     0.980   0.778145E-62
     0.030     0.990   0.207681E-63
     0.030     1.000   0.120737-152
     0.040     0.000   0.601347-153
     0.040     0.010   0.810152E-05
     0.040     0.020   0.670130E-06
     0.040     0.030   0.277061E-07
     0.040     0.040   0.763140E-09
     0.040     0.051   0.157524E-10
     0.040     0.061   0.259905E-12
     0.040     0.071   0.357043E-14
     0.040     0.081   0.420045E-16
     0.040     0.091   0.432006E-18
     0.040     0.101   0.394584E-20
     0.040     0.111   0.324070E-22
     0.040     0.121   0.241741E-24
     0.040     0.131   0.165150E-26
     0.040     0.141   0.104051E-28
     0.040     0.152   0.608180E-31
     0.040     0.162   0.331480E-33
     0.040     0.172   0.169221E-35
     0.040     0.182   0.812312E-38
     0.040     0.192   0.367932E-40
     0.040     0.202   0.157736E-42
     0.040     0.212   0.641827E-45
     0.040     0.222   0.248492E-47
     0.040     0.232   0.917495E-50
     0.040     0.242   0.323733E-52
     0.040     0.253   0.109366E-54
     0.040     0.263   0.354363E-57
     0.040     0.273   0.110300E-59
     0.040     0.283   0.330301E-62
     0.040     0.293   0.952897E-65
     0.040     0.303   0.265177E-67
     0.040     0.313   0.712694E-70
     0.040     0.323   0.211879E-72
     0.040     0.333   0.500829E-72
     0.040     0.343   0.266911E-73
     0.040     0.354   0.743323E-75
     0.040     0.364   0.159989E-76
     0.040     0.374   0.179051E-75
     0.040     0.384   0.150429E-73
     0.040     0.394   0.102798E-71
     0.040     0.404   0.537886E-70
     0.040     0.414   0.193139E-68
     0.040     0.424   0.362083E-67
     0.040     0.434   0.193139E-68
     0.040     0.444   0.537886E-70
     0.040     0.455   0.102798E-71
     0.040     0.465   0.152386E-73
     0.040     0.475   0.166411E-73
     0.040     0.485   0.112498E-71
     0.040     0.495   0.588639E-70
     0.040     0.505   0.211363E-68
     0.040     0.515   0.396248E-67
     0.040     0.525   0.211363E-68
     0.040     0.535   0.588639E-70
     0.040     0.545   0.112498E-71
     0.040     0.556   0.166749E-73
     0.040     0.566   0.180774E-73
     0.040     0.576   0.122198E-71
     0.040     0.586   0.639392E-70
     0.040     0.596   0.229588E-68
     0.040     0.606   0.430414E-67
     0.040     0.616   0.229588E-68
     0.040     0.626   0.639392E-70
     0.040     0.636   0.122198E-71
     0.040     0.646   0.180268E-73
     0.040     0.657   0.124194E-73
     0.040     0.667   0.834178E-72
     0.040     0.677   0.436478E-70
     0.040     0.687   0.156727E-68
     0.040     0.697   0.293819E-67
     0.040     0.707   0.156727E-68
     0.040     0.717   0.436478E-70
     0.040     0.727   0.834178E-72
     0.040     0.737   0.123688E-73
     0.040     0.747   0.137714E-73
     0.040     0.758   0.931175E-72
     0.040     0.768   0.487231E-70
     0.040     0.778   0.174951E-68
     0.040     0.788   0.327985E-67
     0.040     0.798   0.174951E-68
     0.040     0.808   0.487241E-70
     0.040     0.818   0.104871E-71
     0.040     0.828   0.117365E-70
     0.040     0.838   0.986030E-69
     0.040     0.848   0.673822E-67
     0.040     0.859   0.352574E-65
     0.040     0.869   0.126599E-63
     0.040     0.879   0.237339E-62
     0.040     0.889   0.126599E-63
     0.040     0.899   0.352574E-65
     0.040     0.909   0.673824E-67
     0.040     0.919   0.998859E-69
     0.040     0.929   0.109078E-68
     0.040     0.939   0.737392E-67
     0.040     0.949   0.385835E-65
     0.040     0.960   0.138543E-63
     0.040     0.970   0.259729E-62
     0.040     0.980   0.138542E-63
     0.040     0.990   0.385727E-65
     0.040     1.000   0.601347-153
     0.051     0.000   0.603687-153
     0.051     0.010   0.101116E-04
     0.051     0.020   0.836397E-06
     0.051     0.030   0.345803E-07
     0.051     0.040   0.952483E-09
     0.051     0.051   0.196608E-10
     0.051     0.061   0.324390E-12
     0.051     0.071   0.445630E-14
     0.051     0.081   0.524263E-16
     0.051     0.091   0.539192E-18
     0.051     0.101   0.492485E-20
     0.051     0.111   0.404475E-22
     0.051     0.121   0.301720E-24
     0.051     0.131   0.206125E-26
     0.051     0.141   0.129867E-28
     0.051     0.152   0.759077E-31
     0.051     0.162   0.413723E-33
     0.051     0.172   0.211206E-35
     0.051     0.182   0.101385E-37
     0.051     0.192   0.459220E-40
     0.051     0.202   0.196872E-42
     0.051     0.212   0.801071E-45
     0.051     0.222   0.310146E-47
     0.051     0.232   0.114514E-49
     0.051     0.242   0.404054E-52
     0.051     0.253   0.136501E-54
     0.051     0.263   0.442284E-57
     0.051     0.273   0.137667E-59
     0.051     0.283   0.412253E-62
     0.051     0.293   0.118932E-64
     0.051     0.303   0.330971E-67
     0.051     0.313   0.889512E-70
     0.051     0.323   0.231508E-72
     0.051     0.333   0.726372E-74
     0.051     0.343   0.373235E-75
     0.051     0.354   0.106597E-76
     0.051     0.364   0.235117E-78
     0.051     0.374   0.269260E-77
     0.051     0.384   0.223554E-75
     0.051     0.394   0.150438E-73
     0.051     0.404   0.771120E-72
     0.051     0.414   0.269063E-70
     0.051     0.424   0.483568E-69
     0.051     0.434   0.269063E-70
     0.051     0.444   0.771120E-72
     0.051     0.455   0.150438E-73
     0.051     0.465   0.226498E-75
     0.051     0.475   0.247338E-75
     0.051     0.485   0.164633E-73
     0.051     0.495   0.843881E-72
     0.051     0.505   0.294451E-70
     0.051     0.515   0.529196E-69
     0.051     0.525   0.294451E-70
     0.051     0.535   0.843881E-72
     0.051     0.545   0.164633E-73
     0.051     0.556   0.247845E-75
     0.051     0.566   0.268686E-75
     0.051     0.576   0.178828E-73
     0.051     0.586   0.916642E-72
     0.051     0.596   0.319839E-70
     0.051     0.606   0.574825E-69
     0.051     0.616   0.319839E-70
     0.051     0.626   0.916642E-72
     0.051     0.636   0.178828E-73
     0.051     0.646   0.267925E-75
     0.051     0.657   0.184605E-75
     0.051     0.667   0.122076E-73
     0.051     0.677   0.625741E-72
     0.051     0.687   0.218337E-70
     0.051     0.697   0.392401E-69
     0.051     0.707   0.218337E-70
     0.051     0.717   0.625741E-72
     0.051     0.727   0.122076E-73
     0.051     0.737   0.183844E-75
     0.051     0.747   0.204684E-75
     0.051     0.758   0.136271E-73
     0.051     0.768   0.698502E-72
     0.051     0.778   0.243725E-70
     0.051     0.788   0.438029E-69
     0.051     0.798   0.243725E-70
     0.051     0.808   0.698517E-72
     0.051     0.818   0.154111E-73
     0.051     0.828   0.176495E-72
     0.051     0.838   0.146536E-70
     0.051     0.848   0.986089E-69
     0.051     0.859   0.505455E-67
     0.051     0.869   0.176366E-65
     0.051     0.879   0.316970E-64
     0.051     0.889   0.176366E-65
     0.051     0.899   0.505455E-67
     0.051     0.909   0.986091E-69
     0.051     0.919   0.148465E-70
     0.051     0.929   0.162123E-70
     0.051     0.939   0.107912E-68
     0.051     0.949   0.553139E-67
     0.051     0.960   0.193004E-65
     0.051     0.970   0.346873E-64
     0.051     0.980   0.193004E-65
     0.051     0.990   0.552979E-67
     0.051     1.000    0.00000    
     0.061     0.000    0.00000    
     0.061     0.010   0.121115E-04
     0.061     0.020   0.100182E-05
     0.061     0.030   0.414196E-07
     0.061     0.040   0.114087E-08
     0.061     0.051   0.235494E-10
     0.061     0.061   0.388549E-12
     0.061     0.071   0.533767E-14
     0.061     0.081   0.627953E-16
     0.061     0.091   0.645834E-18
     0.061     0.101   0.589890E-20
     0.061     0.111   0.484474E-22
     0.061     0.121   0.361395E-24
     0.061     0.131   0.246893E-26
     0.061     0.141   0.155553E-28
     0.061     0.152   0.909208E-31
     0.061     0.162   0.495551E-33
     0.061     0.172   0.252979E-35
     0.061     0.182   0.121438E-37
     0.061     0.192   0.550046E-40
     0.061     0.202   0.235810E-42
     0.061     0.212   0.959508E-45
     0.061     0.222   0.371487E-47
     0.061     0.232   0.137162E-49
     0.061     0.242   0.483969E-52
     0.061     0.253   0.163499E-54
     0.061     0.263   0.529760E-57
     0.061     0.273   0.164895E-59
     0.061     0.283   0.493789E-62
     0.061     0.293   0.142455E-64
     0.061     0.303   0.396431E-67
     0.061     0.313   0.106544E-69
     0.061     0.323   0.276855E-72
     0.061     0.333   0.770737E-75
     0.061     0.343   0.596093E-77
     0.061     0.354   0.128771E-78
     0.061     0.364   0.281390E-80
     0.061     0.374   0.326986E-79
     0.061     0.384   0.268961E-77
     0.061     0.394   0.178861E-75
     0.061     0.404   0.902817E-74
     0.061     0.414   0.308601E-72
     0.061     0.424   0.538986E-71
     0.061     0.434   0.308601E-72
     0.061     0.444   0.902817E-74
     0.061     0.455   0.178861E-75
     0.061     0.465   0.272535E-77
     0.061     0.475   0.297605E-77
     0.061     0.485   0.195738E-75
     0.061     0.495   0.988005E-74
     0.061     0.505   0.337720E-72
     0.061     0.515   0.589843E-71
     0.061     0.525   0.337720E-72
     0.061     0.535   0.988005E-74
     0.061     0.545   0.195738E-75
     0.061     0.556   0.298221E-77
     0.061     0.566   0.323292E-77
     0.061     0.576   0.212615E-75
     0.061     0.586   0.107319E-73
     0.061     0.596   0.366839E-72
     0.061     0.606   0.640701E-71
     0.061     0.616   0.366839E-72
     0.061     0.626   0.107319E-73
     0.061     0.636   0.212614E-75
     0.061     0.646   0.322368E-77
     0.061     0.657   0.222136E-77
     0.061     0.667   0.145140E-75
     0.061     0.677   0.732609E-74
     0.061     0.687   0.250421E-72
     0.061     0.697   0.437371E-71
     0.061     0.707   0.250421E-72
     0.061     0.717   0.732609E-74
     0.061     0.727   0.145140E-75
     0.061     0.737   0.221212E-77
     0.061     0.747   0.246282E-77
     0.061     0.758   0.162017E-75
     0.061     0.768   0.817796E-74
     0.061     0.778   0.279540E-72
     0.061     0.788   0.488228E-71
     0.061     0.798   0.279540E-72
     0.061     0.808   0.817815E-74
     0.061     0.818   0.183846E-75
     0.061     0.828   0.214333E-74
     0.061     0.838   0.176299E-72
     0.061     0.848   0.117240E-70
     0.061     0.859   0.591779E-69
     0.061     0.869   0.202282E-67
     0.061     0.879   0.353295E-66
     0.061     0.889   0.202282E-67
     0.061     0.899   0.591779E-69
     0.061     0.909   0.117240E-70
     0.061     0.919   0.178641E-72
     0.061     0.929   0.195071E-72
     0.061     0.939   0.128300E-70
     0.061     0.949   0.647608E-69
     0.061     0.960   0.221366E-67
     0.061     0.970   0.386625E-66
     0.061     0.980   0.221366E-67
     0.061     0.990   0.647415E-69
     0.061     1.000    0.00000    
     0.071     0.000    0.00000    
     0.071     0.010   0.140992E-04
     0.071     0.020   0.116624E-05
     0.071     0.030   0.482173E-07
     0.071     0.040   0.132810E-08
     0.071     0.051   0.274142E-10
     0.071     0.061   0.452316E-12
     0.071     0.071   0.621368E-14
     0.071     0.081   0.731010E-16
     0.071     0.091   0.751826E-18
     0.071     0.101   0.686701E-20
     0.071     0.111   0.563984E-22
     0.071     0.121   0.420706E-24
     0.071     0.131   0.287412E-26
     0.071     0.141   0.181081E-28
     0.071     0.152   0.105842E-30
     0.071     0.162   0.576879E-33
     0.071     0.172   0.294497E-35
     0.071     0.182   0.141368E-37
     0.071     0.192   0.640317E-40
     0.071     0.202   0.274510E-42
     0.071     0.212   0.111698E-44
     0.071     0.222   0.432455E-47
     0.071     0.232   0.159673E-49
     0.071     0.242   0.563396E-52
     0.071     0.253   0.190332E-54
     0.071     0.263   0.616703E-57
     0.071     0.273   0.191957E-59
     0.071     0.283   0.574828E-62
     0.071     0.293   0.165834E-64
     0.071     0.303   0.461492E-67
     0.071     0.313   0.124030E-69
     0.071     0.323   0.322287E-72
     0.071     0.333   0.811233E-75
     0.071     0.343   0.201638E-77
     0.071     0.354   0.590164E-80
     0.071     0.364   0.388953E-82
     0.071     0.374   0.333427E-81
     0.071     0.384   0.272194E-79
     0.071     0.394   0.179328E-77
     0.071     0.404   0.894517E-76
     0.071     0.414   0.301099E-74
     0.071     0.424   0.515198E-73
     0.071     0.434   0.301099E-74
     0.071     0.444   0.894517E-76
     0.071     0.455   0.179329E-77
     0.071     0.465   0.275839E-79
     0.071     0.475   0.301208E-79
     0.071     0.485   0.196250E-77
     0.071     0.495   0.978921E-76
     0.071     0.505   0.329510E-74
     0.071     0.515   0.563811E-73
     0.071     0.525   0.329510E-74
     0.071     0.535   0.978921E-76
     0.071     0.545   0.196250E-77
     0.071     0.556   0.301837E-79
     0.071     0.566   0.327206E-79
     0.071     0.576   0.213171E-77
     0.071     0.586   0.106333E-75
     0.071     0.596   0.357921E-74
     0.071     0.606   0.612424E-73
     0.071     0.616   0.357921E-74
     0.071     0.626   0.106333E-75
     0.071     0.636   0.213171E-77
     0.071     0.646   0.326264E-79
     0.071     0.657   0.224836E-79
     0.071     0.667   0.145520E-77
     0.071     0.677   0.725873E-76
     0.071     0.687   0.244333E-74
     0.071     0.697   0.418068E-73
     0.071     0.707   0.244333E-74
     0.071     0.717   0.725873E-76
     0.071     0.727   0.145520E-77
     0.071     0.737   0.223894E-79
     0.071     0.747   0.249263E-79
     0.071     0.758   0.162441E-77
     0.071     0.768   0.810277E-76
     0.071     0.778   0.272744E-74
     0.071     0.788   0.466681E-73
     0.071     0.798   0.272744E-74
     0.071     0.808   0.810297E-76
     0.071     0.818   0.184834E-77
     0.071     0.828   0.218539E-76
     0.071     0.838   0.178418E-74
     0.071     0.848   0.117546E-72
     0.071     0.859   0.586339E-71
     0.071     0.869   0.197365E-69
     0.071     0.879   0.337703E-68
     0.071     0.889   0.197365E-69
     0.071     0.899   0.586339E-71
     0.071     0.909   0.117547E-72
     0.071     0.919   0.180807E-74
     0.071     0.929   0.197433E-74
     0.071     0.939   0.128636E-72
     0.071     0.949   0.641654E-71
     0.071     0.960   0.215984E-69
     0.071     0.970   0.369561E-68
     0.071     0.980   0.215984E-69
     0.071     0.990   0.641459E-71
     0.071     1.000    0.00000    
     0.081     0.000    0.00000    
     0.081     0.010   0.160727E-04
     0.081     0.020   0.132948E-05
     0.081     0.030   0.549664E-07
     0.081     0.040   0.151400E-08
     0.081     0.051   0.312514E-10
     0.081     0.061   0.515628E-12
     0.081     0.071   0.708342E-14
     0.081     0.081   0.833332E-16
     0.081     0.091   0.857061E-18
     0.081     0.101   0.782820E-20
     0.081     0.111   0.642926E-22
     0.081     0.121   0.479593E-24
     0.081     0.131   0.327642E-26
     0.081     0.141   0.206428E-28
     0.081     0.152   0.120658E-30
     0.081     0.162   0.657626E-33
     0.081     0.172   0.335719E-35
     0.081     0.182   0.161155E-37
     0.081     0.192   0.729944E-40
     0.081     0.202   0.312934E-42
     0.081     0.212   0.127333E-44
     0.081     0.222   0.492987E-47
     0.081     0.232   0.182023E-49
     0.081     0.242   0.642256E-52
     0.081     0.253   0.216973E-54
     0.081     0.263   0.703024E-57
     0.081     0.273   0.218826E-59
     0.081     0.283   0.655288E-62
     0.081     0.293   0.189046E-64
     0.081     0.303   0.526088E-67