Title="Temperature Data"
Variables="X","Y","T"
 
Zone I=   128, J=   128, F=POINT
     0.000     0.000    0.00000    
     0.000     0.008    0.00000    
     0.000     0.016    0.00000    
     0.000     0.024    0.00000    
     0.000     0.031    0.00000    
     0.000     0.039    0.00000    
     0.000     0.047    0.00000    
     0.000     0.055    0.00000    
     0.000     0.063    0.00000    
     0.000     0.071    0.00000    
     0.000     0.079    0.00000    
     0.000     0.087    0.00000    
     0.000     0.094    0.00000    
     0.000     0.102    0.00000    
     0.000     0.110    0.00000    
     0.000     0.118    0.00000    
     0.000     0.126    0.00000    
     0.000     0.134    0.00000    
     0.000     0.142    0.00000    
     0.000     0.150    0.00000    
     0.000     0.157    0.00000    
     0.000     0.165    0.00000    
     0.000     0.173    0.00000    
     0.000     0.181    0.00000    
     0.000     0.189    0.00000    
     0.000     0.197    0.00000    
     0.000     0.205    0.00000    
     0.000     0.213    0.00000    
     0.000     0.220    0.00000    
     0.000     0.228    0.00000    
     0.000     0.236    0.00000    
     0.000     0.244    0.00000    
     0.000     0.252    0.00000    
     0.000     0.260    0.00000    
     0.000     0.268    0.00000    
     0.000     0.276    0.00000    
     0.000     0.283    0.00000    
     0.000     0.291    0.00000    
     0.000     0.299    0.00000    
     0.000     0.307    0.00000    
     0.000     0.315    0.00000    
     0.000     0.323    0.00000    
     0.000     0.331    0.00000    
     0.000     0.339    0.00000    
     0.000     0.346    0.00000    
     0.000     0.354    0.00000    
     0.000     0.362    0.00000    
     0.000     0.370    0.00000    
     0.000     0.378    0.00000    
     0.000     0.386    0.00000    
     0.000     0.394    0.00000    
     0.000     0.402    0.00000    
     0.000     0.409    0.00000    
     0.000     0.417    0.00000    
     0.000     0.425    0.00000    
     0.000     0.433    0.00000    
     0.000     0.441    0.00000    
     0.000     0.449    0.00000    
     0.000     0.457    0.00000    
     0.000     0.465    0.00000    
     0.000     0.472    0.00000    
     0.000     0.480    0.00000    
     0.000     0.488    0.00000    
     0.000     0.496    0.00000    
     0.000     0.504    0.00000    
     0.000     0.512    0.00000    
     0.000     0.520    0.00000    
     0.000     0.528    0.00000    
     0.000     0.535    0.00000    
     0.000     0.543    0.00000    
     0.000     0.551    0.00000    
     0.000     0.559    0.00000    
     0.000     0.567    0.00000    
     0.000     0.575    0.00000    
     0.000     0.583    0.00000    
     0.000     0.591    0.00000    
     0.000     0.598    0.00000    
     0.000     0.606    0.00000    
     0.000     0.614    0.00000    
     0.000     0.622    0.00000    
     0.000     0.630    0.00000    
     0.000     0.638    0.00000    
     0.000     0.646    0.00000    
     0.000     0.654    0.00000    
     0.000     0.661    0.00000    
     0.000     0.669    0.00000    
     0.000     0.677    0.00000    
     0.000     0.685    0.00000    
     0.000     0.693    0.00000    
     0.000     0.701    0.00000    
     0.000     0.709    0.00000    
     0.000     0.717    0.00000    
     0.000     0.724    0.00000    
     0.000     0.732    0.00000    
     0.000     0.740    0.00000    
     0.000     0.748    0.00000    
     0.000     0.756    0.00000    
     0.000     0.764    0.00000    
     0.000     0.772    0.00000    
     0.000     0.780    0.00000    
     0.000     0.787    0.00000    
     0.000     0.795    0.00000    
     0.000     0.803    0.00000    
     0.000     0.811    0.00000    
     0.000     0.819    0.00000    
     0.000     0.827    0.00000    
     0.000     0.835    0.00000    
     0.000     0.843    0.00000    
     0.000     0.850    0.00000    
     0.000     0.858    0.00000    
     0.000     0.866    0.00000    
     0.000     0.874    0.00000    
     0.000     0.882    0.00000    
     0.000     0.890    0.00000    
     0.000     0.898    0.00000    
     0.000     0.906    0.00000    
     0.000     0.913    0.00000    
     0.000     0.921    0.00000    
     0.000     0.929    0.00000    
     0.000     0.937    0.00000    
     0.000     0.945    0.00000    
     0.000     0.953    0.00000    
     0.000     0.961    0.00000    
     0.000     0.969    0.00000    
     0.000     0.976    0.00000    
     0.000     0.984    0.00000    
     0.000     0.992    0.00000    
     0.000     1.000    0.00000    
     0.008     0.000   0.247344E-01
     0.008     0.008   0.240928E-01
     0.008     0.016   0.234660E-01
     0.008     0.024   0.228536E-01
     0.008     0.031   0.222554E-01
     0.008     0.039   0.216710E-01
     0.008     0.047   0.211001E-01
     0.008     0.055   0.205423E-01
     0.008     0.063   0.199976E-01
     0.008     0.071   0.194654E-01
     0.008     0.079   0.189456E-01
     0.008     0.087   0.184378E-01
     0.008     0.094   0.179419E-01
     0.008     0.102   0.174574E-01
     0.008     0.110   0.169844E-01
     0.008     0.118   0.165223E-01
     0.008     0.126   0.160712E-01
     0.008     0.134   0.156305E-01
     0.008     0.142   0.152003E-01
     0.008     0.150   0.147801E-01
     0.008     0.157   0.143700E-01
     0.008     0.165   0.139694E-01
     0.008     0.173   0.135785E-01
     0.008     0.181   0.131967E-01
     0.008     0.189   0.128242E-01
     0.008     0.197   0.124605E-01
     0.008     0.205   0.121056E-01
     0.008     0.213   0.117592E-01
     0.008     0.220   0.114212E-01
     0.008     0.228   0.110913E-01
     0.008     0.236   0.107696E-01
     0.008     0.244   0.104556E-01
     0.008     0.252   0.101494E-01
     0.008     0.260   0.985059E-02
     0.008     0.268   0.955935E-02
     0.008     0.276   0.927511E-02
     0.008     0.283   0.899818E-02
     0.008     0.291   0.872793E-02
     0.008     0.299   0.846470E-02
     0.008     0.307   0.820788E-02
     0.008     0.315   0.795780E-02
     0.008     0.323   0.771383E-02
     0.008     0.331   0.747636E-02
     0.008     0.339   0.724473E-02
     0.008     0.346   0.701933E-02
     0.008     0.354   0.679953E-02
     0.008     0.362   0.658571E-02
     0.008     0.370   0.637724E-02
     0.008     0.378   0.617452E-02
     0.008     0.386   0.597691E-02
     0.008     0.394   0.578482E-02
     0.008     0.402   0.559760E-02
     0.008     0.409   0.541569E-02
     0.008     0.417   0.523844E-02
     0.008     0.425   0.506626E-02
     0.008     0.433   0.489854E-02
     0.008     0.441   0.473569E-02
     0.008     0.449   0.457709E-02
     0.008     0.457   0.442316E-02
     0.008     0.465   0.427327E-02
     0.008     0.472   0.412786E-02
     0.008     0.480   0.398631E-02
     0.008     0.488   0.384904E-02
     0.008     0.496   0.371544E-02
     0.008     0.504   0.358594E-02
     0.008     0.512   0.345994E-02
     0.008     0.520   0.333785E-02
     0.008     0.528   0.321909E-02
     0.008     0.535   0.310407E-02
     0.008     0.543   0.299221E-02
     0.008     0.551   0.288392E-02
     0.008     0.559   0.277863E-02
     0.008     0.567   0.267674E-02
     0.008     0.575   0.257770E-02
     0.008     0.583   0.248189E-02
     0.008     0.591   0.238878E-02
     0.008     0.598   0.229875E-02
     0.008     0.606   0.221128E-02
     0.008     0.614   0.212673E-02
     0.008     0.622   0.204459E-02
     0.008     0.630   0.196522E-02
     0.008     0.638   0.188814E-02
     0.008     0.646   0.181368E-02
     0.008     0.654   0.174137E-02
     0.008     0.661   0.167154E-02
     0.008     0.669   0.160373E-02
     0.008     0.677   0.153827E-02
     0.008     0.685   0.147470E-02
     0.008     0.693   0.141334E-02
     0.008     0.701   0.135377E-02
     0.008     0.709   0.129626E-02
     0.008     0.717   0.124042E-02
     0.008     0.724   0.118653E-02
     0.008     0.732   0.113419E-02
     0.008     0.740   0.108367E-02
     0.008     0.748   0.103460E-02
     0.008     0.756   0.987219E-03
     0.008     0.764   0.941182E-03
     0.008     0.772   0.896718E-03
     0.008     0.780   0.853495E-03
     0.008     0.787   0.811728E-03
     0.008     0.795   0.771102E-03
     0.008     0.803   0.731817E-03
     0.008     0.811   0.693578E-03
     0.008     0.819   0.656566E-03
     0.008     0.827   0.620507E-03
     0.008     0.835   0.585565E-03
     0.008     0.843   0.551485E-03
     0.008     0.850   0.518412E-03
     0.008     0.858   0.486113E-03
     0.008     0.866   0.454715E-03
     0.008     0.874   0.424004E-03
     0.008     0.882   0.394089E-03
     0.008     0.890   0.364776E-03
     0.008     0.898   0.336156E-03
     0.008     0.906   0.308055E-03
     0.008     0.913   0.280544E-03
     0.008     0.921   0.253470E-03
     0.008     0.929   0.226887E-03
     0.008     0.937   0.200659E-03
     0.008     0.945   0.174823E-03
     0.008     0.953   0.149262E-03
     0.008     0.961   0.123994E-03
     0.008     0.969   0.989221E-04
     0.008     0.976   0.740450E-04
     0.008     0.984   0.492854E-04
     0.008     0.992   0.246231E-04
     0.008     1.000    0.00000    
     0.016     0.000   0.494537E-01
     0.016     0.008   0.481709E-01
     0.016     0.016   0.469176E-01
     0.016     0.024   0.456933E-01
     0.016     0.031   0.444972E-01
     0.016     0.039   0.433287E-01
     0.016     0.047   0.421872E-01
     0.016     0.055   0.410722E-01
     0.016     0.063   0.399828E-01
     0.016     0.071   0.389189E-01
     0.016     0.079   0.378794E-01
     0.016     0.087   0.368643E-01
     0.016     0.094   0.358727E-01
     0.016     0.102   0.349043E-01
     0.016     0.110   0.339583E-01
     0.016     0.118   0.330346E-01
     0.016     0.126   0.321324E-01
     0.016     0.134   0.312515E-01
     0.016     0.142   0.303911E-01
     0.016     0.150   0.295513E-01
     0.016     0.157   0.287310E-01
     0.016     0.165   0.279304E-01
     0.016     0.173   0.271485E-01
     0.016     0.181   0.263855E-01
     0.016     0.189   0.256404E-01
     0.016     0.197   0.249135E-01
     0.016     0.205   0.242037E-01
     0.016     0.213   0.235113E-01
     0.016     0.220   0.228353E-01
     0.016     0.228   0.221761E-01
     0.016     0.236   0.215324E-01
     0.016     0.244   0.209050E-01
     0.016     0.252   0.202924E-01
     0.016     0.260   0.196954E-01
     0.016     0.268   0.191126E-01
     0.016     0.276   0.185448E-01
     0.016     0.283   0.179906E-01
     0.016     0.291   0.174508E-01
     0.016     0.299   0.169240E-01
     0.016     0.307   0.164110E-01
     0.016     0.315   0.159105E-01
     0.016     0.323   0.154232E-01
     0.016     0.331   0.149479E-01
     0.016     0.339   0.144853E-01
     0.016     0.346   0.140341E-01
     0.016     0.354   0.135952E-01
     0.016     0.362   0.131671E-01
     0.016     0.370   0.127508E-01
     0.016     0.378   0.123450E-01
     0.016     0.386   0.119504E-01
     0.016     0.394   0.115658E-01
     0.016     0.402   0.111920E-01
     0.016     0.409   0.108278E-01
     0.016     0.417   0.104739E-01
     0.016     0.425   0.101292E-01
     0.016     0.433   0.979435E-02
     0.016     0.441   0.946822E-02
     0.016     0.449   0.915164E-02
     0.016     0.457   0.884334E-02
     0.016     0.465   0.854419E-02
     0.016     0.472   0.825293E-02
     0.016     0.480   0.797043E-02
     0.016     0.488   0.769546E-02
     0.016     0.496   0.742886E-02
     0.016     0.504   0.716943E-02
     0.016     0.512   0.691801E-02
     0.016     0.520   0.667341E-02
     0.016     0.528   0.643646E-02
     0.016     0.535   0.620600E-02
     0.016     0.543   0.598284E-02
     0.016     0.551   0.576583E-02
     0.016     0.559   0.555580E-02
     0.016     0.567   0.535160E-02
     0.016     0.575   0.515405E-02
     0.016     0.583   0.496203E-02
     0.016     0.591   0.477633E-02
     0.016     0.598   0.459588E-02
     0.016     0.606   0.442142E-02
     0.016     0.614   0.425193E-02
     0.016     0.622   0.408814E-02
     0.016     0.630   0.392903E-02
     0.016     0.638   0.377533E-02
     0.016     0.646   0.362604E-02
     0.016     0.654   0.348187E-02
     0.016     0.661   0.334185E-02
     0.016     0.669   0.320667E-02
     0.016     0.677   0.307540E-02
     0.016     0.685   0.294868E-02
     0.016     0.693   0.282564E-02
     0.016     0.701   0.270688E-02
     0.016     0.709   0.259156E-02
     0.016     0.717   0.248026E-02
     0.016     0.724   0.237217E-02
     0.016     0.732   0.226785E-02
     0.016     0.740   0.216653E-02
     0.016     0.748   0.206871E-02
     0.016     0.756   0.197369E-02
     0.016     0.764   0.188193E-02
     0.016     0.772   0.179275E-02
     0.016     0.780   0.170660E-02
     0.016     0.787   0.162283E-02
     0.016     0.795   0.154186E-02
     0.016     0.803   0.146307E-02
     0.016     0.811   0.138685E-02
     0.016     0.819   0.131262E-02
     0.016     0.827   0.124074E-02
     0.016     0.835   0.117067E-02
     0.016     0.843   0.110273E-02
     0.016     0.850   0.103642E-02
     0.016     0.858   0.972014E-03
     0.016     0.866   0.909072E-03
     0.016     0.874   0.847825E-03
     0.016     0.882   0.787866E-03
     0.016     0.890   0.729396E-03
     0.016     0.898   0.672045E-03
     0.016     0.906   0.615978E-03
     0.016     0.913   0.560865E-03
     0.016     0.921   0.506833E-03
     0.016     0.929   0.453593E-03
     0.016     0.937   0.401234E-03
     0.016     0.945   0.349506E-03
     0.016     0.953   0.298462E-03
     0.016     0.961   0.247888E-03
     0.016     0.969   0.197803E-03
     0.016     0.976   0.148030E-03
     0.016     0.984   0.985502E-04
     0.016     0.992   0.492264E-04
     0.016     1.000    0.00000    
     0.024     0.000   0.741428E-01
     0.024     0.008   0.722195E-01
     0.024     0.016   0.703406E-01
     0.024     0.024   0.685049E-01
     0.024     0.031   0.667117E-01
     0.024     0.039   0.649599E-01
     0.024     0.047   0.632486E-01
     0.024     0.055   0.615767E-01
     0.024     0.063   0.599437E-01
     0.024     0.071   0.583484E-01
     0.024     0.079   0.567903E-01
     0.024     0.087   0.552682E-01
     0.024     0.094   0.537817E-01
     0.024     0.102   0.523296E-01
     0.024     0.110   0.509116E-01
     0.024     0.118   0.495265E-01
     0.024     0.126   0.481742E-01
     0.024     0.134   0.468532E-01
     0.024     0.142   0.455636E-01
     0.024     0.150   0.443041E-01
     0.024     0.157   0.430747E-01
     0.024     0.165   0.418740E-01
     0.024     0.173   0.407022E-01
     0.024     0.181   0.395578E-01
     0.024     0.189   0.384413E-01
     0.024     0.197   0.373509E-01
     0.024     0.205   0.362873E-01
     0.024     0.213   0.352487E-01
     0.024     0.220   0.342358E-01
     0.024     0.228   0.332468E-01
     0.024     0.236   0.322825E-01
     0.024     0.244   0.313411E-01
     0.024     0.252   0.304234E-01
     0.024     0.260   0.295277E-01
     0.024     0.268   0.286547E-01
     0.024     0.276   0.278026E-01
     0.024     0.283   0.269725E-01
     0.024     0.291   0.261624E-01
     0.024     0.299   0.253734E-01
     0.024     0.307   0.246035E-01
     0.024     0.315   0.238539E-01
     0.024     0.323   0.231226E-01
     0.024     0.331   0.224108E-01
     0.024     0.339   0.217165E-01
     0.024     0.346   0.210408E-01
     0.024     0.354   0.203820E-01
     0.024     0.362   0.197410E-01
     0.024     0.370   0.191161E-01
     0.024     0.378   0.185085E-01
     0.024     0.386   0.179161E-01
     0.024     0.394   0.173403E-01
     0.024     0.402   0.167791E-01
     0.024     0.409   0.162338E-01
     0.024     0.417   0.157025E-01
     0.024     0.425   0.151864E-01
     0.024     0.433   0.146836E-01
     0.024     0.441   0.141955E-01
     0.024     0.449   0.137201E-01
     0.024     0.457   0.132586E-01
     0.024     0.465   0.128094E-01
     0.024     0.472   0.123735E-01
     0.024     0.480   0.119492E-01
     0.024     0.488   0.115377E-01
     0.024     0.496   0.111372E-01
     0.024     0.504   0.107490E-01
     0.024     0.512   0.103713E-01
     0.024     0.520   0.100054E-01
     0.024     0.528   0.964940E-02
     0.024     0.535   0.930462E-02
     0.024     0.543   0.896931E-02
     0.024     0.551   0.864471E-02
     0.024     0.559   0.832909E-02
     0.024     0.567   0.802367E-02
     0.024     0.575   0.772678E-02
     0.024     0.583   0.743960E-02
     0.024     0.591   0.716050E-02
     0.024     0.598   0.689064E-02
     0.024     0.606   0.662842E-02
     0.024     0.614   0.637498E-02
     0.024     0.622   0.612876E-02
     0.024     0.630   0.589086E-02
     0.024     0.638   0.565979E-02
     0.024     0.646   0.543659E-02
     0.024     0.654   0.521983E-02
     0.024     0.661   0.501052E-02
     0.024     0.669   0.480726E-02
     0.024     0.677   0.461103E-02
     0.024     0.685   0.442049E-02
     0.024     0.693   0.423657E-02
     0.024     0.701   0.405798E-02
     0.024     0.709   0.388561E-02
     0.024     0.717   0.371824E-02
     0.024     0.724   0.355669E-02
     0.024     0.732   0.339980E-02
     0.024     0.740   0.324837E-02
     0.024     0.748   0.310126E-02
     0.024     0.756   0.295924E-02
     0.024     0.764   0.282124E-02
     0.024     0.772   0.268796E-02
     0.024     0.780   0.255840E-02
     0.024     0.787   0.243320E-02
     0.024     0.795   0.231142E-02
     0.024     0.803   0.219366E-02
     0.024     0.811   0.207904E-02
     0.024     0.819   0.196809E-02
     0.024     0.827   0.186000E-02
     0.024     0.835   0.175526E-02
     0.024     0.843   0.165310E-02
     0.024     0.850   0.155397E-02
     0.024     0.858   0.145715E-02
     0.024     0.866   0.136303E-02
     0.024     0.874   0.127097E-02
     0.024     0.882   0.118130E-02
     0.024     0.890   0.109344E-02
     0.024     0.898   0.100765E-02
     0.024     0.906   0.923410E-03
     0.024     0.913   0.840947E-03
     0.024     0.921   0.759791E-03
     0.024     0.929   0.680106E-03
     0.024     0.937   0.601487E-03
     0.024     0.945   0.524041E-03
     0.024     0.953   0.447421E-03
     0.024     0.961   0.371679E-03
     0.024     0.969   0.296524E-03
     0.024     0.976   0.221954E-03
     0.024     0.984   0.147736E-03
     0.024     0.992   0.738091E-04
     0.024     1.000    0.00000    
     0.031     0.000   0.987864E-01
     0.031     0.008   0.962239E-01
     0.031     0.016   0.937204E-01
     0.031     0.024   0.912748E-01
     0.031     0.031   0.888854E-01
     0.031     0.039   0.865514E-01
     0.031     0.047   0.842711E-01
     0.031     0.055   0.820438E-01
     0.031     0.063   0.798678E-01
     0.031     0.071   0.777425E-01
     0.031     0.079   0.756662E-01
     0.031     0.087   0.736385E-01
     0.031     0.094   0.716575E-01
     0.031     0.102   0.697231E-01
     0.031     0.110   0.678335E-01
     0.031     0.118   0.659884E-01
     0.031     0.126   0.641861E-01
     0.031     0.134   0.624266E-01
     0.031     0.142   0.607079E-01
     0.031     0.150   0.590302E-01
     0.031     0.157   0.573916E-01
     0.031     0.165   0.557924E-01
     0.031     0.173   0.542305E-01
     0.031     0.181   0.527065E-01
     0.031     0.189   0.512181E-01
     0.031     0.197   0.497660E-01
     0.031     0.205   0.483481E-01
     0.031     0.213   0.469651E-01
     0.031     0.220   0.456147E-01
     0.031     0.228   0.442978E-01
     0.031     0.236   0.430122E-01
     0.031     0.244   0.417587E-01
     0.031     0.252   0.405352E-01
     0.031     0.260   0.393425E-01
     0.031     0.268   0.381785E-01
     0.031     0.276   0.370442E-01
     0.031     0.283   0.359372E-01
     0.031     0.291   0.348588E-01
     0.031     0.299   0.338066E-01
     0.031     0.307   0.327818E-01
     0.031     0.315   0.317820E-01
     0.031     0.323   0.308087E-01
     0.031     0.331   0.298592E-01
     0.031     0.339   0.289351E-01
     0.031     0.346   0.280339E-01
     0.031     0.354   0.271570E-01
     0.031     0.362   0.263021E-01
     0.031     0.370   0.254705E-01
     0.031     0.378   0.246598E-01
     0.031     0.386   0.238716E-01
     0.031     0.394   0.231034E-01
     0.031     0.402   0.223567E-01
     0.031     0.409   0.216291E-01
     0.031     0.417   0.209222E-01
     0.031     0.425   0.202335E-01
     0.031     0.433   0.195647E-01
     0.031     0.441   0.189133E-01
     0.031     0.449   0.182809E-01
     0.031     0.457   0.176650E-01
     0.031     0.465   0.170675E-01
     0.031     0.472   0.164857E-01
     0.031     0.480   0.159214E-01
     0.031     0.488   0.153721E-01
     0.031     0.496   0.148395E-01
     0.031     0.504   0.143213E-01
     0.031     0.512   0.138191E-01
     0.031     0.520   0.133305E-01
     0.031     0.528   0.128572E-01
     0.031     0.535   0.123968E-01
     0.031     0.543   0.119510E-01
     0.031     0.551   0.115176E-01
     0.031     0.559   0.110980E-01
     0.031     0.567   0.106901E-01
     0.031     0.575   0.102955E-01
     0.031     0.583   0.991192E-02
     0.031     0.591   0.954098E-02
     0.031     0.598   0.918050E-02
     0.031     0.606   0.883203E-02
     0.031     0.614   0.849346E-02
     0.031     0.622   0.816627E-02
     0.031     0.630   0.784845E-02
     0.031     0.638   0.754141E-02
     0.031     0.646   0.724321E-02
     0.031     0.654   0.695521E-02
     0.031     0.661   0.667553E-02
     0.031     0.669   0.640549E-02
     0.031     0.677   0.614328E-02
     0.031     0.685   0.589015E-02
     0.031     0.693   0.564437E-02
     0.031     0.701   0.540713E-02
     0.031     0.709   0.517678E-02
     0.031     0.717   0.495445E-02
     0.031     0.724   0.473854E-02
     0.031     0.732   0.453015E-02
     0.031     0.740   0.432775E-02
     0.031     0.748   0.413237E-02
     0.031     0.756   0.394255E-02
     0.031     0.764   0.375925E-02
     0.031     0.772   0.358111E-02
     0.031     0.780   0.340902E-02
     0.031     0.787   0.324169E-02
     0.031     0.795   0.307994E-02
     0.031     0.803   0.292255E-02
     0.031     0.811   0.277030E-02
     0.031     0.819   0.262203E-02
     0.031     0.827   0.247844E-02
     0.031     0.835   0.233848E-02
     0.031     0.843   0.220275E-02
     0.031     0.850   0.207030E-02
     0.031     0.858   0.194165E-02
     0.031     0.866   0.181592E-02
     0.031     0.874   0.169358E-02
     0.031     0.882   0.157380E-02
     0.031     0.890   0.145701E-02
     0.031     0.898   0.134245E-02
     0.031     0.906   0.123045E-02
     0.031     0.913   0.112036E-02
     0.031     0.921   0.101243E-02
     0.031     0.929   0.906076E-03
     0.031     0.937   0.801486E-03
     0.031     0.945   0.698157E-03
     0.031     0.953   0.596193E-03
     0.031     0.961   0.495170E-03
     0.031     0.969   0.395121E-03
     0.031     0.976   0.295699E-03
     0.031     0.984   0.196859E-03
     0.031     0.992   0.983324E-04
     0.031     1.000    0.00000    
     0.039     0.000   0.123370    
     0.039     0.008   0.120169    
     0.039     0.016   0.117043    
     0.039     0.024   0.113989    
     0.039     0.031   0.111005    
     0.039     0.039   0.108090    
     0.039     0.047   0.105242    
     0.039     0.055   0.102460    
     0.039     0.063   0.997432E-01
     0.039     0.071   0.970887E-01
     0.039     0.079   0.944961E-01
     0.039     0.087   0.919633E-01
     0.039     0.094   0.894899E-01
     0.039     0.102   0.870737E-01
     0.039     0.110   0.847143E-01
     0.039     0.118   0.824095E-01
     0.039     0.126   0.801593E-01
     0.039     0.134   0.779612E-01
     0.039     0.142   0.758155E-01
     0.039     0.150   0.737197E-01
     0.039     0.157   0.716740E-01
     0.039     0.165   0.696761E-01
     0.039     0.173   0.677263E-01
     0.039     0.181   0.658222E-01
     0.039     0.189   0.639643E-01
     0.039     0.197   0.621500E-01
     0.039     0.205   0.603801E-01
     0.039     0.213   0.586520E-01
     0.039     0.220   0.569665E-01
     0.039     0.228   0.553209E-01
     0.039     0.236   0.537164E-01
     0.039     0.244   0.521500E-01
     0.039     0.252   0.506230E-01
     0.039     0.260   0.491325E-01
     0.039     0.268   0.476799E-01
     0.039     0.276   0.462621E-01
     0.039     0.283   0.448808E-01
     0.039     0.291   0.435329E-01
     0.039     0.299   0.422200E-01
     0.039     0.307   0.409390E-01
     0.039     0.315   0.396917E-01
     0.039     0.323   0.384748E-01
     0.039     0.331   0.372903E-01
     0.039     0.339   0.361350E-01
     0.039     0.346   0.350108E-01
     0.039     0.354   0.339145E-01
     0.039     0.362   0.328480E-01
     0.039     0.370   0.318082E-01
     0.039     0.378   0.307971E-01
     0.039     0.386   0.298114E-01
     0.039     0.394   0.288533E-01
     0.039     0.402   0.279196E-01
     0.039     0.409   0.270122E-01
     0.039     0.417   0.261281E-01
     0.039     0.425   0.252694E-01
     0.039     0.433   0.244328E-01
     0.039     0.441   0.236205E-01
     0.039     0.449   0.228295E-01
     0.039     0.457   0.220617E-01
     0.039     0.465   0.213141E-01
     0.039     0.472   0.205888E-01
     0.039     0.480   0.198828E-01
     0.039     0.488   0.191981E-01
     0.039     0.496   0.185318E-01
     0.039     0.504   0.178859E-01
     0.039     0.512   0.172574E-01
     0.039     0.520   0.166484E-01
     0.039     0.528   0.160561E-01
     0.039     0.535   0.154824E-01
     0.039     0.543   0.149245E-01
     0.039     0.551   0.143843E-01
     0.039     0.559   0.138592E-01
     0.039     0.567   0.133510E-01
     0.039     0.575   0.128570E-01
     0.039     0.583   0.123791E-01
     0.039     0.591   0.119147E-01
     0.039     0.598   0.114657E-01
     0.039     0.606   0.110293E-01
     0.039     0.614   0.106076E-01
     0.039     0.622   0.101979E-01
     0.039     0.630   0.980208E-02
     0.039     0.638   0.941759E-02
     0.039     0.646   0.904621E-02
     0.039     0.654   0.868553E-02
     0.039     0.661   0.833724E-02
     0.039     0.669   0.799903E-02
     0.039     0.677   0.767252E-02
     0.039     0.685   0.735547E-02
     0.039     0.693   0.704943E-02
     0.039     0.701   0.675227E-02
     0.039     0.709   0.646546E-02
     0.039     0.717   0.618695E-02
     0.039     0.724   0.591815E-02
     0.039     0.732   0.565709E-02
     0.039     0.740   0.540511E-02
     0.039     0.748   0.516034E-02
     0.039     0.756   0.492402E-02
     0.039     0.764   0.469440E-02
     0.039     0.772   0.447262E-02
     0.039     0.780   0.425704E-02
     0.039     0.787   0.404871E-02
     0.039     0.795   0.384608E-02
     0.039     0.803   0.365013E-02
     0.039     0.811   0.345941E-02
     0.039     0.819   0.327480E-02
     0.039     0.827   0.309495E-02
     0.039     0.835   0.292066E-02
     0.039     0.843   0.275068E-02
     0.039     0.850   0.258572E-02
     0.039     0.858   0.242462E-02
     0.039     0.866   0.226802E-02
     0.039     0.874   0.211484E-02
     0.039     0.882   0.196563E-02
     0.039     0.890   0.181942E-02
     0.039     0.898   0.167667E-02
     0.039     0.906   0.153651E-02
     0.039     0.913   0.139929E-02
     0.039     0.921   0.126425E-02
     0.039     0.929   0.113166E-02
     0.039     0.937   0.100084E-02
     0.039     0.945   0.871977E-03
     0.039     0.953   0.744485E-03
     0.039     0.961   0.618454E-03
     0.039     0.969   0.493401E-03
     0.039     0.976   0.369319E-03
     0.039     0.984   0.245824E-03
     0.039     0.992   0.122815E-03
     0.039     1.000    0.00000    
     0.047     0.000   0.147877    
     0.047     0.008   0.144041    
     0.047     0.016   0.140294    
     0.047     0.024   0.136633    
     0.047     0.031   0.133056    
     0.047     0.039   0.129562    
     0.047     0.047   0.126149    
     0.047     0.055   0.122815    
     0.047     0.063   0.119557    
     0.047     0.071   0.116376    
     0.047     0.079   0.113268    
     0.047     0.087   0.110232    
     0.047     0.094   0.107267    
     0.047     0.102   0.104371    
     0.047     0.110   0.101543    
     0.047     0.118   0.987807E-01
     0.047     0.126   0.960828E-01
     0.047     0.134   0.934488E-01
     0.047     0.142   0.908761E-01
     0.047     0.150   0.883647E-01
     0.047     0.157   0.859118E-01
     0.047     0.165   0.835179E-01
     0.047     0.173   0.811799E-01
     0.047     0.181   0.788984E-01
     0.047     0.189   0.766704E-01
     0.047     0.197   0.744968E-01
     0.047     0.205   0.723743E-01
     0.047     0.213   0.703039E-01
     0.047     0.220   0.682825E-01
     0.047     0.228   0.663112E-01
     0.047     0.236   0.643867E-01
     0.047     0.244   0.625104E-01
     0.047     0.252   0.606787E-01
     0.047     0.260   0.588934E-01
     0.047     0.268   0.571509E-01
     0.047     0.276   0.554529E-01
     0.047     0.283   0.537958E-01
     0.047     0.291   0.521816E-01
     0.047     0.299   0.506064E-01
     0.047     0.307   0.490724E-01
     0.047     0.315   0.475758E-01
     0.047     0.323   0.461187E-01
     0.047     0.331   0.446974E-01
     0.047     0.339   0.433141E-01
     0.047     0.346   0.419651E-01
     0.047     0.354   0.406525E-01
     0.047     0.362   0.393726E-01
     0.047     0.370   0.381278E-01
     0.047     0.378   0.369142E-01
     0.047     0.386   0.357344E-01
     0.047     0.394   0.345843E-01
     0.047     0.402   0.334667E-01
     0.047     0.409   0.323775E-01
     0.047     0.417   0.313193E-01
     0.047     0.425   0.302884E-01
     0.047     0.433   0.292872E-01
     0.047     0.441   0.283120E-01
     0.047     0.449   0.273654E-01
     0.047     0.457   0.264435E-01
     0.047     0.465   0.255490E-01
     0.047     0.472   0.246781E-01
     0.047     0.480   0.238333E-01
     0.047     0.488   0.230111E-01