Title="Temperature Data"
Variables="X","Y","T"
 
Zone I=   128, J=   128, F=POINT
     0.000     0.000    0.00000    
     0.000     0.008    0.00000    
     0.000     0.016    0.00000    
     0.000     0.024    0.00000    
     0.000     0.031    0.00000    
     0.000     0.039    0.00000    
     0.000     0.047    0.00000    
     0.000     0.055    0.00000    
     0.000     0.063    0.00000    
     0.000     0.071    0.00000    
     0.000     0.079    0.00000    
     0.000     0.087    0.00000    
     0.000     0.094    0.00000    
     0.000     0.102    0.00000    
     0.000     0.110    0.00000    
     0.000     0.118    0.00000    
     0.000     0.126    0.00000    
     0.000     0.134    0.00000    
     0.000     0.142    0.00000    
     0.000     0.150    0.00000    
     0.000     0.157    0.00000    
     0.000     0.165    0.00000    
     0.000     0.173    0.00000    
     0.000     0.181    0.00000    
     0.000     0.189    0.00000    
     0.000     0.197    0.00000    
     0.000     0.205    0.00000    
     0.000     0.213    0.00000    
     0.000     0.220    0.00000    
     0.000     0.228    0.00000    
     0.000     0.236    0.00000    
     0.000     0.244    0.00000    
     0.000     0.252    0.00000    
     0.000     0.260    0.00000    
     0.000     0.268    0.00000    
     0.000     0.276    0.00000    
     0.000     0.283    0.00000    
     0.000     0.291    0.00000    
     0.000     0.299    0.00000    
     0.000     0.307    0.00000    
     0.000     0.315    0.00000    
     0.000     0.323    0.00000    
     0.000     0.331    0.00000    
     0.000     0.339    0.00000    
     0.000     0.346    0.00000    
     0.000     0.354    0.00000    
     0.000     0.362    0.00000    
     0.000     0.370    0.00000    
     0.000     0.378    0.00000    
     0.000     0.386    0.00000    
     0.000     0.394    0.00000    
     0.000     0.402    0.00000    
     0.000     0.409    0.00000    
     0.000     0.417    0.00000    
     0.000     0.425    0.00000    
     0.000     0.433    0.00000    
     0.000     0.441    0.00000    
     0.000     0.449    0.00000    
     0.000     0.457    0.00000    
     0.000     0.465    0.00000    
     0.000     0.472    0.00000    
     0.000     0.480    0.00000    
     0.000     0.488    0.00000    
     0.000     0.496    0.00000    
     0.000     0.504    0.00000    
     0.000     0.512    0.00000    
     0.000     0.520    0.00000    
     0.000     0.528    0.00000    
     0.000     0.535    0.00000    
     0.000     0.543    0.00000    
     0.000     0.551    0.00000    
     0.000     0.559    0.00000    
     0.000     0.567    0.00000    
     0.000     0.575    0.00000    
     0.000     0.583    0.00000    
     0.000     0.591    0.00000    
     0.000     0.598    0.00000    
     0.000     0.606    0.00000    
     0.000     0.614    0.00000    
     0.000     0.622    0.00000    
     0.000     0.630    0.00000    
     0.000     0.638    0.00000    
     0.000     0.646    0.00000    
     0.000     0.654    0.00000    
     0.000     0.661    0.00000    
     0.000     0.669    0.00000    
     0.000     0.677    0.00000    
     0.000     0.685    0.00000    
     0.000     0.693    0.00000    
     0.000     0.701    0.00000    
     0.000     0.709    0.00000    
     0.000     0.717    0.00000    
     0.000     0.724    0.00000    
     0.000     0.732    0.00000    
     0.000     0.740    0.00000    
     0.000     0.748    0.00000    
     0.000     0.756    0.00000    
     0.000     0.764    0.00000    
     0.000     0.772    0.00000    
     0.000     0.780    0.00000    
     0.000     0.787    0.00000    
     0.000     0.795    0.00000    
     0.000     0.803    0.00000    
     0.000     0.811    0.00000    
     0.000     0.819    0.00000    
     0.000     0.827    0.00000    
     0.000     0.835    0.00000    
     0.000     0.843    0.00000    
     0.000     0.850    0.00000    
     0.000     0.858    0.00000    
     0.000     0.866    0.00000    
     0.000     0.874    0.00000    
     0.000     0.882    0.00000    
     0.000     0.890    0.00000    
     0.000     0.898    0.00000    
     0.000     0.906    0.00000    
     0.000     0.913    0.00000    
     0.000     0.921    0.00000    
     0.000     0.929    0.00000    
     0.000     0.937    0.00000    
     0.000     0.945    0.00000    
     0.000     0.953    0.00000    
     0.000     0.961    0.00000    
     0.000     0.969    0.00000    
     0.000     0.976    0.00000    
     0.000     0.984    0.00000    
     0.000     0.992    0.00000    
     0.000     1.000    0.00000    
     0.008     0.000   0.247344E-01
     0.008     0.008   0.241250E-01
     0.008     0.016   0.235303E-01
     0.008     0.024   0.229501E-01
     0.008     0.031   0.223839E-01
     0.008     0.039   0.218314E-01
     0.008     0.047   0.212923E-01
     0.008     0.055   0.207662E-01
     0.008     0.063   0.202529E-01
     0.008     0.071   0.197520E-01
     0.008     0.079   0.192632E-01
     0.008     0.087   0.187862E-01
     0.008     0.094   0.183208E-01
     0.008     0.102   0.178666E-01
     0.008     0.110   0.174233E-01
     0.008     0.118   0.169908E-01
     0.008     0.126   0.165688E-01
     0.008     0.134   0.161569E-01
     0.008     0.142   0.157550E-01
     0.008     0.150   0.153627E-01
     0.008     0.157   0.149800E-01
     0.008     0.165   0.146065E-01
     0.008     0.173   0.142419E-01
     0.008     0.181   0.138862E-01
     0.008     0.189   0.135390E-01
     0.008     0.197   0.132002E-01
     0.008     0.205   0.128696E-01
     0.008     0.213   0.125469E-01
     0.008     0.220   0.122320E-01
     0.008     0.228   0.119246E-01
     0.008     0.236   0.116247E-01
     0.008     0.244   0.113319E-01
     0.008     0.252   0.110462E-01
     0.008     0.260   0.107673E-01
     0.008     0.268   0.104952E-01
     0.008     0.276   0.102295E-01
     0.008     0.283   0.997025E-02
     0.008     0.291   0.971716E-02
     0.008     0.299   0.947016E-02
     0.008     0.307   0.922904E-02
     0.008     0.315   0.899370E-02
     0.008     0.323   0.876397E-02
     0.008     0.331   0.853973E-02
     0.008     0.339   0.832082E-02
     0.008     0.346   0.810714E-02
     0.008     0.354   0.789853E-02
     0.008     0.362   0.769489E-02
     0.008     0.370   0.749607E-02
     0.008     0.378   0.730198E-02
     0.008     0.386   0.711248E-02
     0.008     0.394   0.692747E-02
     0.008     0.402   0.674681E-02
     0.008     0.409   0.657044E-02
     0.008     0.417   0.639820E-02
     0.008     0.425   0.623002E-02
     0.008     0.433   0.606578E-02
     0.008     0.441   0.590540E-02
     0.008     0.449   0.574875E-02
     0.008     0.457   0.559578E-02
     0.008     0.465   0.544635E-02
     0.008     0.472   0.530041E-02
     0.008     0.480   0.515783E-02
     0.008     0.488   0.501857E-02
     0.008     0.496   0.488250E-02
     0.008     0.504   0.474957E-02
     0.008     0.512   0.461967E-02
     0.008     0.520   0.449275E-02
     0.008     0.528   0.436870E-02
     0.008     0.535   0.424749E-02
     0.008     0.543   0.412898E-02
     0.008     0.551   0.401317E-02
     0.008     0.559   0.389992E-02
     0.008     0.567   0.378922E-02
     0.008     0.575   0.368096E-02
     0.008     0.583   0.357510E-02
     0.008     0.591   0.347154E-02
     0.008     0.598   0.337026E-02
     0.008     0.606   0.327115E-02
     0.008     0.614   0.317419E-02
     0.008     0.622   0.307929E-02
     0.008     0.630   0.298642E-02
     0.008     0.638   0.289549E-02
     0.008     0.646   0.280647E-02
     0.008     0.654   0.271927E-02
     0.008     0.661   0.263388E-02
     0.008     0.669   0.255021E-02
     0.008     0.677   0.246823E-02
     0.008     0.685   0.238786E-02
     0.008     0.693   0.230908E-02
     0.008     0.701   0.223182E-02
     0.008     0.709   0.215605E-02
     0.008     0.717   0.208169E-02
     0.008     0.724   0.200873E-02
     0.008     0.732   0.193709E-02
     0.008     0.740   0.186675E-02
     0.008     0.748   0.179764E-02
     0.008     0.756   0.172974E-02
     0.008     0.764   0.166298E-02
     0.008     0.772   0.159735E-02
     0.008     0.780   0.153277E-02
     0.008     0.787   0.146923E-02
     0.008     0.795   0.140666E-02
     0.008     0.803   0.134505E-02
     0.008     0.811   0.128433E-02
     0.008     0.819   0.122449E-02
     0.008     0.827   0.116545E-02
     0.008     0.835   0.110722E-02
     0.008     0.843   0.104972E-02
     0.008     0.850   0.992932E-03
     0.008     0.858   0.936808E-03
     0.008     0.866   0.881327E-03
     0.008     0.874   0.826432E-03
     0.008     0.882   0.772104E-03
     0.008     0.890   0.718291E-03
     0.008     0.898   0.664972E-03
     0.008     0.906   0.612096E-03
     0.008     0.913   0.559642E-03
     0.008     0.921   0.507561E-03
     0.008     0.929   0.455831E-03
     0.008     0.937   0.404404E-03
     0.008     0.945   0.353257E-03
     0.008     0.953   0.302345E-03
     0.008     0.961   0.251642E-03
     0.008     0.969   0.201108E-03
     0.008     0.976   0.150712E-03
     0.008     0.984   0.100417E-03
     0.008     0.992   0.501919E-04
     0.008     1.000    0.00000    
     0.016     0.000   0.494537E-01
     0.016     0.008   0.482352E-01
     0.016     0.016   0.470463E-01
     0.016     0.024   0.458861E-01
     0.016     0.031   0.447541E-01
     0.016     0.039   0.436494E-01
     0.016     0.047   0.425715E-01
     0.016     0.055   0.415197E-01
     0.016     0.063   0.404934E-01
     0.016     0.071   0.394919E-01
     0.016     0.079   0.385146E-01
     0.016     0.087   0.375609E-01
     0.016     0.094   0.366303E-01
     0.016     0.102   0.357222E-01
     0.016     0.110   0.348360E-01
     0.016     0.118   0.339713E-01
     0.016     0.126   0.331274E-01
     0.016     0.134   0.323039E-01
     0.016     0.142   0.315003E-01
     0.016     0.150   0.307161E-01
     0.016     0.157   0.299508E-01
     0.016     0.165   0.292040E-01
     0.016     0.173   0.284751E-01
     0.016     0.181   0.277639E-01
     0.016     0.189   0.270698E-01
     0.016     0.197   0.263924E-01
     0.016     0.205   0.257313E-01
     0.016     0.213   0.250861E-01
     0.016     0.220   0.244565E-01
     0.016     0.228   0.238420E-01
     0.016     0.236   0.232422E-01
     0.016     0.244   0.226569E-01
     0.016     0.252   0.220856E-01
     0.016     0.260   0.215281E-01
     0.016     0.268   0.209839E-01
     0.016     0.276   0.204528E-01
     0.016     0.283   0.199344E-01
     0.016     0.291   0.194284E-01
     0.016     0.299   0.189345E-01
     0.016     0.307   0.184525E-01
     0.016     0.315   0.179819E-01
     0.016     0.323   0.175226E-01
     0.016     0.331   0.170742E-01
     0.016     0.339   0.166366E-01
     0.016     0.346   0.162093E-01
     0.016     0.354   0.157922E-01
     0.016     0.362   0.153851E-01
     0.016     0.370   0.149876E-01
     0.016     0.378   0.145995E-01
     0.016     0.386   0.142206E-01
     0.016     0.394   0.138507E-01
     0.016     0.402   0.134895E-01
     0.016     0.409   0.131368E-01
     0.016     0.417   0.127925E-01
     0.016     0.425   0.124562E-01
     0.016     0.433   0.121279E-01
     0.016     0.441   0.118072E-01
     0.016     0.449   0.114940E-01
     0.016     0.457   0.111881E-01
     0.016     0.465   0.108894E-01
     0.016     0.472   0.105976E-01
     0.016     0.480   0.103125E-01
     0.016     0.488   0.100341E-01
     0.016     0.496   0.976203E-02
     0.016     0.504   0.949621E-02
     0.016     0.512   0.923653E-02
     0.016     0.520   0.898273E-02
     0.016     0.528   0.873476E-02
     0.016     0.535   0.849235E-02
     0.016     0.543   0.825547E-02
     0.016     0.551   0.802386E-02
     0.016     0.559   0.779748E-02
     0.016     0.567   0.757611E-02
     0.016     0.575   0.735968E-02
     0.016     0.583   0.714798E-02
     0.016     0.591   0.694097E-02
     0.016     0.598   0.673843E-02
     0.016     0.606   0.654032E-02
     0.016     0.614   0.634643E-02
     0.016     0.622   0.615672E-02
     0.016     0.630   0.597100E-02
     0.016     0.638   0.578922E-02
     0.016     0.646   0.561120E-02
     0.016     0.654   0.543690E-02
     0.016     0.661   0.526613E-02
     0.016     0.669   0.509887E-02
     0.016     0.677   0.493492E-02
     0.016     0.685   0.477427E-02
     0.016     0.693   0.461674E-02
     0.016     0.701   0.446229E-02
     0.016     0.709   0.431076E-02
     0.016     0.717   0.416212E-02
     0.016     0.724   0.401621E-02
     0.016     0.732   0.387300E-02
     0.016     0.740   0.373234E-02
     0.016     0.748   0.359419E-02
     0.016     0.756   0.345841E-02
     0.016     0.764   0.332496E-02
     0.016     0.772   0.319371E-02
     0.016     0.780   0.306462E-02
     0.016     0.787   0.293755E-02
     0.016     0.795   0.281248E-02
     0.016     0.803   0.268927E-02
     0.016     0.811   0.256789E-02
     0.016     0.819   0.244822E-02
     0.016     0.827   0.233021E-02
     0.016     0.835   0.221375E-02
     0.016     0.843   0.209880E-02
     0.016     0.850   0.198525E-02
     0.016     0.858   0.187305E-02
     0.016     0.866   0.176211E-02
     0.016     0.874   0.165237E-02
     0.016     0.882   0.154373E-02
     0.016     0.890   0.143615E-02
     0.016     0.898   0.132953E-02
     0.016     0.906   0.122383E-02
     0.016     0.913   0.111894E-02
     0.016     0.921   0.101482E-02
     0.016     0.929   0.911377E-03
     0.016     0.937   0.808565E-03
     0.016     0.945   0.706293E-03
     0.016     0.953   0.604508E-03
     0.016     0.961   0.503128E-03
     0.016     0.969   0.402095E-03
     0.016     0.976   0.301330E-03
     0.016     0.984   0.200774E-03
     0.016     0.992   0.100353E-03
     0.016     1.000    0.00000    
     0.024     0.000   0.741428E-01
     0.024     0.008   0.723160E-01
     0.024     0.016   0.705335E-01
     0.024     0.024   0.687941E-01
     0.024     0.031   0.670969E-01
     0.024     0.039   0.654408E-01
     0.024     0.047   0.638248E-01
     0.024     0.055   0.622478E-01
     0.024     0.063   0.607091E-01
     0.024     0.071   0.592076E-01
     0.024     0.079   0.577424E-01
     0.024     0.087   0.563126E-01
     0.024     0.094   0.549174E-01
     0.024     0.102   0.535559E-01
     0.024     0.110   0.522274E-01
     0.024     0.118   0.509309E-01
     0.024     0.126   0.496658E-01
     0.024     0.134   0.484312E-01
     0.024     0.142   0.472264E-01
     0.024     0.150   0.460506E-01
     0.024     0.157   0.449033E-01
     0.024     0.165   0.437836E-01
     0.024     0.173   0.426910E-01
     0.024     0.181   0.416246E-01
     0.024     0.189   0.405840E-01
     0.024     0.197   0.395684E-01
     0.024     0.205   0.385773E-01
     0.024     0.213   0.376100E-01
     0.024     0.220   0.366660E-01
     0.024     0.228   0.357447E-01
     0.024     0.236   0.348456E-01
     0.024     0.244   0.339680E-01
     0.024     0.252   0.331116E-01
     0.024     0.260   0.322757E-01
     0.024     0.268   0.314598E-01
     0.024     0.276   0.306635E-01
     0.024     0.283   0.298863E-01
     0.024     0.291   0.291277E-01
     0.024     0.299   0.283873E-01
     0.024     0.307   0.276645E-01
     0.024     0.315   0.269591E-01
     0.024     0.323   0.262704E-01
     0.024     0.331   0.255983E-01
     0.024     0.339   0.249421E-01
     0.024     0.346   0.243016E-01
     0.024     0.354   0.236763E-01
     0.024     0.362   0.230658E-01
     0.024     0.370   0.224699E-01
     0.024     0.378   0.218881E-01
     0.024     0.386   0.213200E-01
     0.024     0.394   0.207655E-01
     0.024     0.402   0.202239E-01
     0.024     0.409   0.196952E-01
     0.024     0.417   0.191789E-01
     0.024     0.425   0.186748E-01
     0.024     0.433   0.181825E-01
     0.024     0.441   0.177018E-01
     0.024     0.449   0.172322E-01
     0.024     0.457   0.167737E-01
     0.024     0.465   0.163257E-01
     0.024     0.472   0.158883E-01
     0.024     0.480   0.154609E-01
     0.024     0.488   0.150434E-01
     0.024     0.496   0.146355E-01
     0.024     0.504   0.142371E-01
     0.024     0.512   0.138477E-01
     0.024     0.520   0.134673E-01
     0.024     0.528   0.130954E-01
     0.024     0.535   0.127321E-01
     0.024     0.543   0.123768E-01
     0.024     0.551   0.120297E-01
     0.024     0.559   0.116902E-01
     0.024     0.567   0.113584E-01
     0.024     0.575   0.110339E-01
     0.024     0.583   0.107165E-01
     0.024     0.591   0.104061E-01
     0.024     0.598   0.101025E-01
     0.024     0.606   0.980544E-02
     0.024     0.614   0.951482E-02
     0.024     0.622   0.923034E-02
     0.024     0.630   0.895196E-02
     0.024     0.638   0.867937E-02
     0.024     0.646   0.841254E-02
     0.024     0.654   0.815116E-02
     0.024     0.661   0.789520E-02
     0.024     0.669   0.764437E-02
     0.024     0.677   0.739864E-02
     0.024     0.685   0.715773E-02
     0.024     0.693   0.692160E-02
     0.024     0.701   0.668999E-02
     0.024     0.709   0.646287E-02
     0.024     0.717   0.623997E-02
     0.024     0.724   0.602127E-02
     0.024     0.732   0.580652E-02
     0.024     0.740   0.559568E-02
     0.024     0.748   0.538851E-02
     0.024     0.756   0.518499E-02
     0.024     0.764   0.498487E-02
     0.024     0.772   0.478814E-02
     0.024     0.780   0.459456E-02
     0.024     0.787   0.440410E-02
     0.024     0.795   0.421655E-02
     0.024     0.803   0.403187E-02
     0.024     0.811   0.384986E-02
     0.024     0.819   0.367047E-02
     0.024     0.827   0.349351E-02
     0.024     0.835   0.331894E-02
     0.024     0.843   0.314658E-02
     0.024     0.850   0.297637E-02
     0.024     0.858   0.280813E-02
     0.024     0.866   0.264182E-02
     0.024     0.874   0.247727E-02
     0.024     0.882   0.231442E-02
     0.024     0.890   0.215312E-02
     0.024     0.898   0.199329E-02
     0.024     0.906   0.183479E-02
     0.024     0.913   0.167756E-02
     0.024     0.921   0.152144E-02
     0.024     0.929   0.136638E-02
     0.024     0.937   0.121222E-02
     0.024     0.945   0.105891E-02
     0.024     0.953   0.906295E-03
     0.024     0.961   0.754311E-03
     0.024     0.969   0.602831E-03
     0.024     0.976   0.451768E-03
     0.024     0.984   0.301006E-03
     0.024     0.992   0.150453E-03
     0.024     1.000    0.00000    
     0.031     0.000   0.987864E-01
     0.031     0.008   0.963525E-01
     0.031     0.016   0.939775E-01
     0.031     0.024   0.916600E-01
     0.031     0.031   0.893986E-01
     0.031     0.039   0.871921E-01
     0.031     0.047   0.850389E-01
     0.031     0.055   0.829379E-01
     0.031     0.063   0.808877E-01
     0.031     0.071   0.788871E-01
     0.031     0.079   0.769349E-01
     0.031     0.087   0.750299E-01
     0.031     0.094   0.731709E-01
     0.031     0.102   0.713570E-01
     0.031     0.110   0.695868E-01
     0.031     0.118   0.678594E-01
     0.031     0.126   0.661737E-01
     0.031     0.134   0.645288E-01
     0.031     0.142   0.629235E-01
     0.031     0.150   0.613570E-01
     0.031     0.157   0.598283E-01
     0.031     0.165   0.583365E-01
     0.031     0.173   0.568806E-01
     0.031     0.181   0.554599E-01
     0.031     0.189   0.540733E-01
     0.031     0.197   0.527202E-01
     0.031     0.205   0.513996E-01
     0.031     0.213   0.501109E-01
     0.031     0.220   0.488531E-01
     0.031     0.228   0.476256E-01
     0.031     0.236   0.464276E-01
     0.031     0.244   0.452584E-01
     0.031     0.252   0.441172E-01
     0.031     0.260   0.430035E-01
     0.031     0.268   0.419165E-01
     0.031     0.276   0.408555E-01
     0.031     0.283   0.398200E-01
     0.031     0.291   0.388093E-01
     0.031     0.299   0.378227E-01
     0.031     0.307   0.368597E-01
     0.031     0.315   0.359198E-01
     0.031     0.323   0.350023E-01
     0.031     0.331   0.341066E-01
     0.031     0.339   0.332324E-01
     0.031     0.346   0.323789E-01
     0.031     0.354   0.315458E-01
     0.031     0.362   0.307325E-01
     0.031     0.370   0.299385E-01
     0.031     0.378   0.291632E-01
     0.031     0.386   0.284064E-01
     0.031     0.394   0.276675E-01
     0.031     0.402   0.269460E-01
     0.031     0.409   0.262415E-01
     0.031     0.417   0.255537E-01
     0.031     0.425   0.248819E-01
     0.031     0.433   0.242261E-01
     0.031     0.441   0.235854E-01
     0.031     0.449   0.229599E-01
     0.031     0.457   0.223489E-01
     0.031     0.465   0.217521E-01
     0.031     0.472   0.211692E-01
     0.031     0.480   0.205998E-01
     0.031     0.488   0.200435E-01
     0.031     0.496   0.195002E-01
     0.031     0.504   0.189692E-01
     0.031     0.512   0.184505E-01
     0.031     0.520   0.179435E-01
     0.031     0.528   0.174481E-01
     0.031     0.535   0.169639E-01
     0.031     0.543   0.164907E-01
     0.031     0.551   0.160281E-01
     0.031     0.559   0.155759E-01
     0.031     0.567   0.151337E-01
     0.031     0.575   0.147014E-01
     0.031     0.583   0.142785E-01
     0.031     0.591   0.138650E-01
     0.031     0.598   0.134604E-01
     0.031     0.606   0.130646E-01
     0.031     0.614   0.126773E-01
     0.031     0.622   0.122984E-01
     0.031     0.630   0.119274E-01
     0.031     0.638   0.115643E-01
     0.031     0.646   0.112087E-01
     0.031     0.654   0.108605E-01
     0.031     0.661   0.105194E-01
     0.031     0.669   0.101853E-01
     0.031     0.677   0.985777E-02
     0.031     0.685   0.953686E-02
     0.031     0.693   0.922218E-02
     0.031     0.701   0.891366E-02
     0.031     0.709   0.861097E-02
     0.031     0.717   0.831406E-02
     0.031     0.724   0.802259E-02
     0.031     0.732   0.773653E-02
     0.031     0.740   0.745554E-02
     0.031     0.748   0.717958E-02
     0.031     0.756   0.690835E-02
     0.031     0.764   0.664178E-02
     0.031     0.772   0.637960E-02
     0.031     0.780   0.612173E-02
     0.031     0.787   0.586791E-02
     0.031     0.795   0.561808E-02
     0.031     0.803   0.537196E-02
     0.031     0.811   0.512950E-02
     0.031     0.819   0.489044E-02
     0.031     0.827   0.465471E-02
     0.031     0.835   0.442208E-02
     0.031     0.843   0.419246E-02
     0.031     0.850   0.396563E-02
     0.031     0.858   0.374152E-02
     0.031     0.866   0.351990E-02
     0.031     0.874   0.330069E-02
     0.031     0.882   0.308368E-02
     0.031     0.890   0.286879E-02
     0.031     0.898   0.265581E-02
     0.031     0.906   0.244466E-02
     0.031     0.913   0.223513E-02
     0.031     0.921   0.202715E-02
     0.031     0.929   0.182052E-02
     0.031     0.937   0.161515E-02
     0.031     0.945   0.141086E-02
     0.031     0.953   0.120754E-02
     0.031     0.961   0.100502E-02
     0.031     0.969   0.803206E-03
     0.031     0.976   0.601924E-03
     0.031     0.984   0.401057E-03
     0.031     0.992   0.200459E-03
     0.031     1.000    0.00000    
     0.039     0.000   0.123370    
     0.039     0.008   0.120330    
     0.039     0.016   0.117364    
     0.039     0.024   0.114470    
     0.039     0.031   0.111646    
     0.039     0.039   0.108890    
     0.039     0.047   0.106201    
     0.039     0.055   0.103577    
     0.039     0.063   0.101017    
     0.039     0.071   0.985183E-01
     0.039     0.079   0.960803E-01
     0.039     0.087   0.937012E-01
     0.039     0.094   0.913797E-01
     0.039     0.102   0.891143E-01
     0.039     0.110   0.869036E-01
     0.039     0.118   0.847464E-01
     0.039     0.126   0.826412E-01
     0.039     0.134   0.805869E-01
     0.039     0.142   0.785822E-01
     0.039     0.150   0.766258E-01
     0.039     0.157   0.747167E-01
     0.039     0.165   0.728536E-01
     0.039     0.173   0.710355E-01
     0.039     0.181   0.692612E-01
     0.039     0.189   0.675296E-01
     0.039     0.197   0.658397E-01
     0.039     0.205   0.641906E-01
     0.039     0.213   0.625811E-01
     0.039     0.220   0.610103E-01
     0.039     0.228   0.594773E-01
     0.039     0.236   0.579812E-01
     0.039     0.244   0.565210E-01
     0.039     0.252   0.550959E-01
     0.039     0.260   0.537050E-01
     0.039     0.268   0.523475E-01
     0.039     0.276   0.510225E-01
     0.039     0.283   0.497293E-01
     0.039     0.291   0.484670E-01
     0.039     0.299   0.472350E-01
     0.039     0.307   0.460323E-01
     0.039     0.315   0.448585E-01
     0.039     0.323   0.437126E-01
     0.039     0.331   0.425942E-01
     0.039     0.339   0.415023E-01
     0.039     0.346   0.404366E-01
     0.039     0.354   0.393960E-01
     0.039     0.362   0.383803E-01
     0.039     0.370   0.373887E-01
     0.039     0.378   0.364206E-01
     0.039     0.386   0.354754E-01
     0.039     0.394   0.345526E-01
     0.039     0.402   0.336515E-01
     0.039     0.409   0.327718E-01
     0.039     0.417   0.319127E-01
     0.039     0.425   0.310739E-01
     0.039     0.433   0.302547E-01
     0.039     0.441   0.294548E-01
     0.039     0.449   0.286735E-01
     0.039     0.457   0.279105E-01
     0.039     0.465   0.271652E-01
     0.039     0.472   0.264372E-01
     0.039     0.480   0.257261E-01
     0.039     0.488   0.250315E-01
     0.039     0.496   0.243528E-01
     0.039     0.504   0.236898E-01
     0.039     0.512   0.230418E-01
     0.039     0.520   0.224088E-01
     0.039     0.528   0.217901E-01
     0.039     0.535   0.211855E-01
     0.039     0.543   0.205944E-01
     0.039     0.551   0.200168E-01
     0.039     0.559   0.194519E-01
     0.039     0.567   0.188998E-01
     0.039     0.575   0.183598E-01
     0.039     0.583   0.178318E-01
     0.039     0.591   0.173152E-01
     0.039     0.598   0.168101E-01
     0.039     0.606   0.163157E-01
     0.039     0.614   0.158322E-01
     0.039     0.622   0.153588E-01
     0.039     0.630   0.148956E-01
     0.039     0.638   0.144420E-01
     0.039     0.646   0.139980E-01
     0.039     0.654   0.135631E-01
     0.039     0.661   0.131372E-01
     0.039     0.669   0.127198E-01
     0.039     0.677   0.123109E-01
     0.039     0.685   0.119101E-01
     0.039     0.693   0.115172E-01
     0.039     0.701   0.111318E-01
     0.039     0.709   0.107539E-01
     0.039     0.717   0.103830E-01
     0.039     0.724   0.100191E-01
     0.039     0.732   0.966174E-02
     0.039     0.740   0.931091E-02
     0.039     0.748   0.896620E-02
     0.039     0.756   0.862754E-02
     0.039     0.764   0.829457E-02
     0.039     0.772   0.796721E-02
     0.039     0.780   0.764511E-02
     0.039     0.787   0.732819E-02
     0.039     0.795   0.701612E-02
     0.039     0.803   0.670882E-02
     0.039     0.811   0.640596E-02
     0.039     0.819   0.610747E-02
     0.039     0.827   0.581302E-02
     0.039     0.835   0.552255E-02
     0.039     0.843   0.523574E-02
     0.039     0.850   0.495252E-02
     0.039     0.858   0.467258E-02
     0.039     0.866   0.439586E-02
     0.039     0.874   0.412205E-02
     0.039     0.882   0.385108E-02
     0.039     0.890   0.358267E-02
     0.039     0.898   0.331673E-02
     0.039     0.906   0.305300E-02
     0.039     0.913   0.279137E-02
     0.039     0.921   0.253160E-02
     0.039     0.929   0.227358E-02
     0.039     0.937   0.201707E-02
     0.039     0.945   0.176196E-02
     0.039     0.953   0.150803E-02
     0.039     0.961   0.125513E-02
     0.039     0.969   0.100308E-02
     0.039     0.976   0.751718E-03
     0.039     0.984   0.500859E-03
     0.039     0.992   0.250346E-03
     0.039     1.000    0.00000    
     0.047     0.000   0.147877    
     0.047     0.008   0.144234    
     0.047     0.016   0.140679    
     0.047     0.024   0.137210    
     0.047     0.031   0.133824    
     0.047     0.039   0.130521    
     0.047     0.047   0.127298    
     0.047     0.055   0.124153    
     0.047     0.063   0.121084    
     0.047     0.071   0.118089    
     0.047     0.079   0.115167    
     0.047     0.087   0.112315    
     0.047     0.094   0.109533    
     0.047     0.102   0.106817    
     0.047     0.110   0.104167    
     0.047     0.118   0.101581    
     0.047     0.126   0.990581E-01
     0.047     0.134   0.965957E-01
     0.047     0.142   0.941928E-01
     0.047     0.150   0.918478E-01
     0.047     0.157   0.895594E-01
     0.047     0.165   0.873263E-01
     0.047     0.173   0.851469E-01
     0.047     0.181   0.830201E-01
     0.047     0.189   0.809445E-01
     0.047     0.197   0.789190E-01
     0.047     0.205   0.769422E-01
     0.047     0.213   0.750130E-01
     0.047     0.220   0.731302E-01
     0.047     0.228   0.712927E-01
     0.047     0.236   0.694993E-01
     0.047     0.244   0.677491E-01
     0.047     0.252   0.660409E-01
     0.047     0.260   0.643737E-01
     0.047     0.268   0.627464E-01
     0.047     0.276   0.611583E-01
     0.047     0.283   0.596081E-01
     0.047     0.291   0.580951E-01
     0.047     0.299   0.566183E-01
     0.047     0.307   0.551768E-01
     0.047     0.315   0.537697E-01
     0.047     0.323   0.523963E-01
     0.047     0.331   0.510556E-01
     0.047     0.339   0.497469E-01
     0.047     0.346   0.484693E-01
     0.047     0.354   0.472222E-01
     0.047     0.362   0.460047E-01
     0.047     0.370   0.448161E-01
     0.047     0.378   0.436556E-01
     0.047     0.386   0.425227E-01
     0.047     0.394   0.414165E-01
     0.047     0.402   0.403366E-01
     0.047     0.409   0.392820E-01
     0.047     0.417   0.382523E-01
     0.047     0.425   0.372468E-01
     0.047     0.433   0.362650E-01
     0.047     0.441   0.353060E-01
     0.047     0.449   0.343696E-01
     0.047     0.457   0.334549E-01
     0.047     0.465   0.325617E-01
     0.047     0.472   0.316890E-01
     0.047     0.480   0.308367E-01
     0.047     0.488   0.300040E-01