Title="Temperature Data"
Variables="X","Y","T"
 
Zone I=   128, J=   128, F=POINT
     0.000     0.000    0.00000    
     0.000     0.008    0.00000    
     0.000     0.016    0.00000    
     0.000     0.024    0.00000    
     0.000     0.031    0.00000    
     0.000     0.039    0.00000    
     0.000     0.047    0.00000    
     0.000     0.055    0.00000    
     0.000     0.063    0.00000    
     0.000     0.071    0.00000    
     0.000     0.079    0.00000    
     0.000     0.087    0.00000    
     0.000     0.094    0.00000    
     0.000     0.102    0.00000    
     0.000     0.110    0.00000    
     0.000     0.118    0.00000    
     0.000     0.126    0.00000    
     0.000     0.134    0.00000    
     0.000     0.142    0.00000    
     0.000     0.150    0.00000    
     0.000     0.157    0.00000    
     0.000     0.165    0.00000    
     0.000     0.173    0.00000    
     0.000     0.181    0.00000    
     0.000     0.189    0.00000    
     0.000     0.197    0.00000    
     0.000     0.205    0.00000    
     0.000     0.213    0.00000    
     0.000     0.220    0.00000    
     0.000     0.228    0.00000    
     0.000     0.236    0.00000    
     0.000     0.244    0.00000    
     0.000     0.252    0.00000    
     0.000     0.260    0.00000    
     0.000     0.268    0.00000    
     0.000     0.276    0.00000    
     0.000     0.283    0.00000    
     0.000     0.291    0.00000    
     0.000     0.299    0.00000    
     0.000     0.307    0.00000    
     0.000     0.315    0.00000    
     0.000     0.323    0.00000    
     0.000     0.331    0.00000    
     0.000     0.339    0.00000    
     0.000     0.346    0.00000    
     0.000     0.354    0.00000    
     0.000     0.362    0.00000    
     0.000     0.370    0.00000    
     0.000     0.378    0.00000    
     0.000     0.386    0.00000    
     0.000     0.394    0.00000    
     0.000     0.402    0.00000    
     0.000     0.409    0.00000    
     0.000     0.417    0.00000    
     0.000     0.425    0.00000    
     0.000     0.433    0.00000    
     0.000     0.441    0.00000    
     0.000     0.449    0.00000    
     0.000     0.457    0.00000    
     0.000     0.465    0.00000    
     0.000     0.472    0.00000    
     0.000     0.480    0.00000    
     0.000     0.488    0.00000    
     0.000     0.496    0.00000    
     0.000     0.504    0.00000    
     0.000     0.512    0.00000    
     0.000     0.520    0.00000    
     0.000     0.528    0.00000    
     0.000     0.535    0.00000    
     0.000     0.543    0.00000    
     0.000     0.551    0.00000    
     0.000     0.559    0.00000    
     0.000     0.567    0.00000    
     0.000     0.575    0.00000    
     0.000     0.583    0.00000    
     0.000     0.591    0.00000    
     0.000     0.598    0.00000    
     0.000     0.606    0.00000    
     0.000     0.614    0.00000    
     0.000     0.622    0.00000    
     0.000     0.630    0.00000    
     0.000     0.638    0.00000    
     0.000     0.646    0.00000    
     0.000     0.654    0.00000    
     0.000     0.661    0.00000    
     0.000     0.669    0.00000    
     0.000     0.677    0.00000    
     0.000     0.685    0.00000    
     0.000     0.693    0.00000    
     0.000     0.701    0.00000    
     0.000     0.709    0.00000    
     0.000     0.717    0.00000    
     0.000     0.724    0.00000    
     0.000     0.732    0.00000    
     0.000     0.740    0.00000    
     0.000     0.748    0.00000    
     0.000     0.756    0.00000    
     0.000     0.764    0.00000    
     0.000     0.772    0.00000    
     0.000     0.780    0.00000    
     0.000     0.787    0.00000    
     0.000     0.795    0.00000    
     0.000     0.803    0.00000    
     0.000     0.811    0.00000    
     0.000     0.819    0.00000    
     0.000     0.827    0.00000    
     0.000     0.835    0.00000    
     0.000     0.843    0.00000    
     0.000     0.850    0.00000    
     0.000     0.858    0.00000    
     0.000     0.866    0.00000    
     0.000     0.874    0.00000    
     0.000     0.882    0.00000    
     0.000     0.890    0.00000    
     0.000     0.898    0.00000    
     0.000     0.906    0.00000    
     0.000     0.913    0.00000    
     0.000     0.921    0.00000    
     0.000     0.929    0.00000    
     0.000     0.937    0.00000    
     0.000     0.945    0.00000    
     0.000     0.953    0.00000    
     0.000     0.961    0.00000    
     0.000     0.969    0.00000    
     0.000     0.976    0.00000    
     0.000     0.984    0.00000    
     0.000     0.992    0.00000    
     0.000     1.000    0.00000    
     0.008     0.000   0.247344E-01
     0.008     0.008   0.241244E-01
     0.008     0.016   0.235291E-01
     0.008     0.024   0.229482E-01
     0.008     0.031   0.223814E-01
     0.008     0.039   0.218282E-01
     0.008     0.047   0.212885E-01
     0.008     0.055   0.207618E-01
     0.008     0.063   0.202479E-01
     0.008     0.071   0.197463E-01
     0.008     0.079   0.192569E-01
     0.008     0.087   0.187793E-01
     0.008     0.094   0.183133E-01
     0.008     0.102   0.178585E-01
     0.008     0.110   0.174147E-01
     0.008     0.118   0.169816E-01
     0.008     0.126   0.165589E-01
     0.008     0.134   0.161465E-01
     0.008     0.142   0.157440E-01
     0.008     0.150   0.153512E-01
     0.008     0.157   0.149678E-01
     0.008     0.165   0.145938E-01
     0.008     0.173   0.142287E-01
     0.008     0.181   0.138724E-01
     0.008     0.189   0.135247E-01
     0.008     0.197   0.131854E-01
     0.008     0.205   0.128543E-01
     0.008     0.213   0.125311E-01
     0.008     0.220   0.122157E-01
     0.008     0.228   0.119078E-01
     0.008     0.236   0.116074E-01
     0.008     0.244   0.113142E-01
     0.008     0.252   0.110280E-01
     0.008     0.260   0.107487E-01
     0.008     0.268   0.104761E-01
     0.008     0.276   0.102101E-01
     0.008     0.283   0.995041E-02
     0.008     0.291   0.969694E-02
     0.008     0.299   0.944956E-02
     0.008     0.307   0.920807E-02
     0.008     0.315   0.897239E-02
     0.008     0.323   0.874231E-02
     0.008     0.331   0.851776E-02
     0.008     0.339   0.829854E-02
     0.008     0.346   0.808456E-02
     0.008     0.354   0.787567E-02
     0.008     0.362   0.767177E-02
     0.008     0.370   0.747269E-02
     0.008     0.378   0.727837E-02
     0.008     0.386   0.708863E-02
     0.008     0.394   0.690342E-02
     0.008     0.402   0.672257E-02
     0.008     0.409   0.654602E-02
     0.008     0.417   0.637361E-02
     0.008     0.425   0.620529E-02
     0.008     0.433   0.604091E-02
     0.008     0.441   0.588041E-02
     0.008     0.449   0.572366E-02
     0.008     0.457   0.557060E-02
     0.008     0.465   0.542110E-02
     0.008     0.472   0.527510E-02
     0.008     0.480   0.513248E-02
     0.008     0.488   0.499320E-02
     0.008     0.496   0.485711E-02
     0.008     0.504   0.472419E-02
     0.008     0.512   0.459430E-02
     0.008     0.520   0.446743E-02
     0.008     0.528   0.434343E-02
     0.008     0.535   0.422228E-02
     0.008     0.543   0.410386E-02
     0.008     0.551   0.398814E-02
     0.008     0.559   0.387501E-02
     0.008     0.567   0.376444E-02
     0.008     0.575   0.365631E-02
     0.008     0.583   0.355061E-02
     0.008     0.591   0.344722E-02
     0.008     0.598   0.334613E-02
     0.008     0.606   0.324723E-02
     0.008     0.614   0.315049E-02
     0.008     0.622   0.305582E-02
     0.008     0.630   0.296320E-02
     0.008     0.638   0.287252E-02
     0.008     0.646   0.278378E-02
     0.008     0.654   0.269686E-02
     0.008     0.661   0.261178E-02
     0.008     0.669   0.252841E-02
     0.008     0.677   0.244676E-02
     0.008     0.685   0.236673E-02
     0.008     0.693   0.228831E-02
     0.008     0.701   0.221141E-02
     0.008     0.709   0.213602E-02
     0.008     0.717   0.206205E-02
     0.008     0.724   0.198950E-02
     0.008     0.732   0.191826E-02
     0.008     0.740   0.184835E-02
     0.008     0.748   0.177968E-02
     0.008     0.756   0.171223E-02
     0.008     0.764   0.164592E-02
     0.008     0.772   0.158076E-02
     0.008     0.780   0.151666E-02
     0.008     0.787   0.145361E-02
     0.008     0.795   0.139154E-02
     0.008     0.803   0.133043E-02
     0.008     0.811   0.127023E-02
     0.008     0.819   0.121090E-02
     0.008     0.827   0.115240E-02
     0.008     0.835   0.109470E-02
     0.008     0.843   0.103775E-02
     0.008     0.850   0.981518E-03
     0.008     0.858   0.925953E-03
     0.008     0.866   0.871040E-03
     0.008     0.874   0.816717E-03
     0.008     0.882   0.762969E-03
     0.008     0.890   0.709739E-03
     0.008     0.898   0.657010E-03
     0.008     0.906   0.604728E-03
     0.008     0.913   0.552873E-03
     0.008     0.921   0.501394E-03
     0.008     0.929   0.450270E-03
     0.008     0.937   0.399452E-03
     0.008     0.945   0.348917E-03
     0.008     0.953   0.298621E-03
     0.008     0.961   0.248536E-03
     0.008     0.969   0.198620E-03
     0.008     0.976   0.148845E-03
     0.008     0.984   0.991719E-04
     0.008     0.992   0.495691E-04
     0.008     1.000    0.00000    
     0.016     0.000   0.494537E-01
     0.016     0.008   0.482340E-01
     0.016     0.016   0.470438E-01
     0.016     0.024   0.458823E-01
     0.016     0.031   0.447490E-01
     0.016     0.039   0.436431E-01
     0.016     0.047   0.425640E-01
     0.016     0.055   0.415109E-01
     0.016     0.063   0.404833E-01
     0.016     0.071   0.394806E-01
     0.016     0.079   0.385020E-01
     0.016     0.087   0.375471E-01
     0.016     0.094   0.366153E-01
     0.016     0.102   0.357060E-01
     0.016     0.110   0.348187E-01
     0.016     0.118   0.339527E-01
     0.016     0.126   0.331077E-01
     0.016     0.134   0.322830E-01
     0.016     0.142   0.314783E-01
     0.016     0.150   0.306929E-01
     0.016     0.157   0.299265E-01
     0.016     0.165   0.291786E-01
     0.016     0.173   0.284487E-01
     0.016     0.181   0.277364E-01
     0.016     0.189   0.270412E-01
     0.016     0.197   0.263628E-01
     0.016     0.205   0.257007E-01
     0.016     0.213   0.250545E-01
     0.016     0.220   0.244239E-01
     0.016     0.228   0.238084E-01
     0.016     0.236   0.232077E-01
     0.016     0.244   0.226215E-01
     0.016     0.252   0.220493E-01
     0.016     0.260   0.214909E-01
     0.016     0.268   0.209459E-01
     0.016     0.276   0.204139E-01
     0.016     0.283   0.198947E-01
     0.016     0.291   0.193880E-01
     0.016     0.299   0.188933E-01
     0.016     0.307   0.184105E-01
     0.016     0.315   0.179393E-01
     0.016     0.323   0.174793E-01
     0.016     0.331   0.170303E-01
     0.016     0.339   0.165920E-01
     0.016     0.346   0.161642E-01
     0.016     0.354   0.157465E-01
     0.016     0.362   0.153388E-01
     0.016     0.370   0.149408E-01
     0.016     0.378   0.145523E-01
     0.016     0.386   0.141730E-01
     0.016     0.394   0.138026E-01
     0.016     0.402   0.134410E-01
     0.016     0.409   0.130880E-01
     0.016     0.417   0.127433E-01
     0.016     0.425   0.124068E-01
     0.016     0.433   0.120781E-01
     0.016     0.441   0.117572E-01
     0.016     0.449   0.114438E-01
     0.016     0.457   0.111378E-01
     0.016     0.465   0.108389E-01
     0.016     0.472   0.105470E-01
     0.016     0.480   0.102618E-01
     0.016     0.488   0.998331E-02
     0.016     0.496   0.971127E-02
     0.016     0.504   0.944546E-02
     0.016     0.512   0.918582E-02
     0.016     0.520   0.893209E-02
     0.016     0.528   0.868422E-02
     0.016     0.535   0.844195E-02
     0.016     0.543   0.820523E-02
     0.016     0.551   0.797382E-02
     0.016     0.559   0.774767E-02
     0.016     0.567   0.752654E-02
     0.016     0.575   0.731041E-02
     0.016     0.583   0.709902E-02
     0.016     0.591   0.689236E-02
     0.016     0.598   0.669019E-02
     0.016     0.606   0.649249E-02
     0.016     0.614   0.629903E-02
     0.016     0.622   0.610979E-02
     0.016     0.630   0.592455E-02
     0.016     0.638   0.574330E-02
     0.016     0.646   0.556582E-02
     0.016     0.654   0.539210E-02
     0.016     0.661   0.522193E-02
     0.016     0.669   0.505530E-02
     0.016     0.677   0.489201E-02
     0.016     0.685   0.473204E-02
     0.016     0.693   0.457521E-02
     0.016     0.701   0.442150E-02
     0.016     0.709   0.427072E-02
     0.016     0.717   0.412286E-02
     0.016     0.724   0.397775E-02
     0.016     0.732   0.383538E-02
     0.016     0.740   0.369556E-02
     0.016     0.748   0.355828E-02
     0.016     0.756   0.342339E-02
     0.016     0.764   0.329086E-02
     0.016     0.772   0.316054E-02
     0.016     0.780   0.303241E-02
     0.016     0.787   0.290631E-02
     0.016     0.795   0.278224E-02
     0.016     0.803   0.266004E-02
     0.016     0.811   0.253969E-02
     0.016     0.819   0.242105E-02
     0.016     0.827   0.230411E-02
     0.016     0.835   0.218872E-02
     0.016     0.843   0.207487E-02
     0.016     0.850   0.196242E-02
     0.016     0.858   0.185135E-02
     0.016     0.866   0.174153E-02
     0.016     0.874   0.163294E-02
     0.016     0.882   0.152546E-02
     0.016     0.890   0.141905E-02
     0.016     0.898   0.131361E-02
     0.016     0.906   0.120909E-02
     0.016     0.913   0.110540E-02
     0.016     0.921   0.100249E-02
     0.016     0.929   0.900257E-03
     0.016     0.937   0.798665E-03
     0.016     0.945   0.697617E-03
     0.016     0.953   0.597063E-03
     0.016     0.961   0.496916E-03
     0.016     0.969   0.397121E-03
     0.016     0.976   0.297597E-03
     0.016     0.984   0.198285E-03
     0.016     0.992   0.991071E-04
     0.016     1.000    0.00000    
     0.024     0.000   0.741428E-01
     0.024     0.008   0.723141E-01
     0.024     0.016   0.705297E-01
     0.024     0.024   0.687884E-01
     0.024     0.031   0.670893E-01
     0.024     0.039   0.654313E-01
     0.024     0.047   0.638134E-01
     0.024     0.055   0.622346E-01
     0.024     0.063   0.606940E-01
     0.024     0.071   0.591906E-01
     0.024     0.079   0.577236E-01
     0.024     0.087   0.562920E-01
     0.024     0.094   0.548950E-01
     0.024     0.102   0.535317E-01
     0.024     0.110   0.522014E-01
     0.024     0.118   0.509031E-01
     0.024     0.126   0.496362E-01
     0.024     0.134   0.483999E-01
     0.024     0.142   0.471934E-01
     0.024     0.150   0.460159E-01
     0.024     0.157   0.448669E-01
     0.024     0.165   0.437456E-01
     0.024     0.173   0.426513E-01
     0.024     0.181   0.415833E-01
     0.024     0.189   0.405411E-01
     0.024     0.197   0.395240E-01
     0.024     0.205   0.385314E-01
     0.024     0.213   0.375626E-01
     0.024     0.220   0.366171E-01
     0.024     0.228   0.356944E-01
     0.024     0.236   0.347939E-01
     0.024     0.244   0.339149E-01
     0.024     0.252   0.330571E-01
     0.024     0.260   0.322199E-01
     0.024     0.268   0.314028E-01
     0.024     0.276   0.306052E-01
     0.024     0.283   0.298269E-01
     0.024     0.291   0.290671E-01
     0.024     0.299   0.283255E-01
     0.024     0.307   0.276017E-01
     0.024     0.315   0.268952E-01
     0.024     0.323   0.262056E-01
     0.024     0.331   0.255324E-01
     0.024     0.339   0.248753E-01
     0.024     0.346   0.242339E-01
     0.024     0.354   0.236077E-01
     0.024     0.362   0.229965E-01
     0.024     0.370   0.223998E-01
     0.024     0.378   0.218173E-01
     0.024     0.386   0.212486E-01
     0.024     0.394   0.206934E-01
     0.024     0.402   0.201512E-01
     0.024     0.409   0.196220E-01
     0.024     0.417   0.191052E-01
     0.024     0.425   0.186007E-01
     0.024     0.433   0.181079E-01
     0.024     0.441   0.176269E-01
     0.024     0.449   0.171570E-01
     0.024     0.457   0.166982E-01
     0.024     0.465   0.162500E-01
     0.024     0.472   0.158124E-01
     0.024     0.480   0.153849E-01
     0.024     0.488   0.149674E-01
     0.024     0.496   0.145594E-01
     0.024     0.504   0.141610E-01
     0.024     0.512   0.137717E-01
     0.024     0.520   0.133913E-01
     0.024     0.528   0.130196E-01
     0.024     0.535   0.126565E-01
     0.024     0.543   0.123015E-01
     0.024     0.551   0.119547E-01
     0.024     0.559   0.116155E-01
     0.024     0.567   0.112841E-01
     0.024     0.575   0.109600E-01
     0.024     0.583   0.106431E-01
     0.024     0.591   0.103332E-01
     0.024     0.598   0.100302E-01
     0.024     0.606   0.973373E-02
     0.024     0.614   0.944376E-02
     0.024     0.622   0.915997E-02
     0.024     0.630   0.888234E-02
     0.024     0.638   0.861052E-02
     0.024     0.646   0.834451E-02
     0.024     0.654   0.808399E-02
     0.024     0.661   0.782894E-02
     0.024     0.669   0.757905E-02
     0.024     0.677   0.733431E-02
     0.024     0.685   0.709441E-02
     0.024     0.693   0.685935E-02
     0.024     0.701   0.662883E-02
     0.024     0.709   0.640284E-02
     0.024     0.717   0.618111E-02
     0.024     0.724   0.596362E-02
     0.024     0.732   0.575010E-02
     0.024     0.740   0.554054E-02
     0.024     0.748   0.533467E-02
     0.024     0.756   0.513249E-02
     0.024     0.764   0.493375E-02
     0.024     0.772   0.473842E-02
     0.024     0.780   0.454626E-02
     0.024     0.787   0.435727E-02
     0.024     0.795   0.417120E-02
     0.024     0.803   0.398804E-02
     0.024     0.811   0.380757E-02
     0.024     0.819   0.362975E-02
     0.024     0.827   0.345438E-02
     0.024     0.835   0.328143E-02
     0.024     0.843   0.311070E-02
     0.024     0.850   0.294215E-02
     0.024     0.858   0.277559E-02
     0.024     0.866   0.261099E-02
     0.024     0.874   0.244815E-02
     0.024     0.882   0.228704E-02
     0.024     0.890   0.212748E-02
     0.024     0.898   0.196942E-02
     0.024     0.906   0.181270E-02
     0.024     0.913   0.165726E-02
     0.024     0.921   0.150295E-02
     0.024     0.929   0.134971E-02
     0.024     0.937   0.119738E-02
     0.024     0.945   0.104590E-02
     0.024     0.953   0.895131E-03
     0.024     0.961   0.744999E-03
     0.024     0.969   0.595374E-03
     0.024     0.976   0.446171E-03
     0.024     0.984   0.297273E-03
     0.024     0.992   0.148586E-03
     0.024     1.000    0.00000    
     0.031     0.000   0.987864E-01
     0.031     0.008   0.963499E-01
     0.031     0.016   0.939724E-01
     0.031     0.024   0.916524E-01
     0.031     0.031   0.893885E-01
     0.031     0.039   0.871795E-01
     0.031     0.047   0.850238E-01
     0.031     0.055   0.829203E-01
     0.031     0.063   0.808676E-01
     0.031     0.071   0.788645E-01
     0.031     0.079   0.769098E-01
     0.031     0.087   0.750024E-01
     0.031     0.094   0.731410E-01
     0.031     0.102   0.713247E-01
     0.031     0.110   0.695521E-01
     0.031     0.118   0.678224E-01
     0.031     0.126   0.661343E-01
     0.031     0.134   0.644871E-01
     0.031     0.142   0.628795E-01
     0.031     0.150   0.613108E-01
     0.031     0.157   0.597798E-01
     0.031     0.165   0.582858E-01
     0.031     0.173   0.568277E-01
     0.031     0.181   0.554049E-01
     0.031     0.189   0.540162E-01
     0.031     0.197   0.526610E-01
     0.031     0.205   0.513384E-01
     0.031     0.213   0.500477E-01
     0.031     0.220   0.487879E-01
     0.031     0.228   0.475586E-01
     0.031     0.236   0.463586E-01
     0.031     0.244   0.451876E-01
     0.031     0.252   0.440447E-01
     0.031     0.260   0.429292E-01
     0.031     0.268   0.418405E-01
     0.031     0.276   0.407779E-01
     0.031     0.283   0.397407E-01
     0.031     0.291   0.387285E-01
     0.031     0.299   0.377404E-01
     0.031     0.307   0.367760E-01
     0.031     0.315   0.358346E-01
     0.031     0.323   0.349158E-01
     0.031     0.331   0.340189E-01
     0.031     0.339   0.331434E-01
     0.031     0.346   0.322888E-01
     0.031     0.354   0.314545E-01
     0.031     0.362   0.306401E-01
     0.031     0.370   0.298451E-01
     0.031     0.378   0.290689E-01
     0.031     0.386   0.283112E-01
     0.031     0.394   0.275714E-01
     0.031     0.402   0.268492E-01
     0.031     0.409   0.261440E-01
     0.031     0.417   0.254555E-01
     0.031     0.425   0.247831E-01
     0.031     0.433   0.241267E-01
     0.031     0.441   0.234856E-01
     0.031     0.449   0.228597E-01
     0.031     0.457   0.222483E-01
     0.031     0.465   0.216513E-01
     0.031     0.472   0.210681E-01
     0.031     0.480   0.204986E-01
     0.031     0.488   0.199422E-01
     0.031     0.496   0.193988E-01
     0.031     0.504   0.188678E-01
     0.031     0.512   0.183492E-01
     0.031     0.520   0.178423E-01
     0.031     0.528   0.173472E-01
     0.031     0.535   0.168632E-01
     0.031     0.543   0.163904E-01
     0.031     0.551   0.159281E-01
     0.031     0.559   0.154764E-01
     0.031     0.567   0.150347E-01
     0.031     0.575   0.146029E-01
     0.031     0.583   0.141807E-01
     0.031     0.591   0.137679E-01
     0.031     0.598   0.133640E-01
     0.031     0.606   0.129691E-01
     0.031     0.614   0.125826E-01
     0.031     0.622   0.122046E-01
     0.031     0.630   0.118346E-01
     0.031     0.638   0.114726E-01
     0.031     0.646   0.111180E-01
     0.031     0.654   0.107710E-01
     0.031     0.661   0.104311E-01
     0.031     0.669   0.100982E-01
     0.031     0.677   0.977204E-02
     0.031     0.685   0.945250E-02
     0.031     0.693   0.913922E-02
     0.031     0.701   0.883217E-02
     0.031     0.709   0.853098E-02
     0.031     0.717   0.823564E-02
     0.031     0.724   0.794577E-02
     0.031     0.732   0.766137E-02
     0.031     0.740   0.738207E-02
     0.031     0.748   0.710786E-02
     0.031     0.756   0.683840E-02
     0.031     0.764   0.657367E-02
     0.031     0.772   0.631334E-02
     0.031     0.780   0.605739E-02
     0.031     0.787   0.580551E-02
     0.031     0.795   0.555767E-02
     0.031     0.803   0.531356E-02
     0.031     0.811   0.507316E-02
     0.031     0.819   0.483618E-02
     0.031     0.827   0.460258E-02
     0.031     0.835   0.437209E-02
     0.031     0.843   0.414467E-02
     0.031     0.850   0.392004E-02
     0.031     0.858   0.369817E-02
     0.031     0.866   0.347881E-02
     0.031     0.874   0.326189E-02
     0.031     0.882   0.304719E-02
     0.031     0.890   0.283463E-02
     0.031     0.898   0.262400E-02
     0.031     0.906   0.241523E-02
     0.031     0.913   0.220809E-02
     0.031     0.921   0.200252E-02
     0.031     0.929   0.179831E-02
     0.031     0.937   0.159538E-02
     0.031     0.945   0.139353E-02
     0.031     0.953   0.119266E-02
     0.031     0.961   0.992615E-03
     0.031     0.969   0.793270E-03
     0.031     0.976   0.594466E-03
     0.031     0.984   0.396084E-03
     0.031     0.992   0.197972E-03
     0.031     1.000    0.00000    
     0.039     0.000   0.123370    
     0.039     0.008   0.120327    
     0.039     0.016   0.117358    
     0.039     0.024   0.114460    
     0.039     0.031   0.111633    
     0.039     0.039   0.108874    
     0.039     0.047   0.106182    
     0.039     0.055   0.103555    
     0.039     0.063   0.100992    
     0.039     0.071   0.984901E-01
     0.039     0.079   0.960490E-01
     0.039     0.087   0.936669E-01
     0.039     0.094   0.913424E-01
     0.039     0.102   0.890739E-01
     0.039     0.110   0.868603E-01
     0.039     0.118   0.847001E-01
     0.039     0.126   0.825920E-01
     0.039     0.134   0.805348E-01
     0.039     0.142   0.785273E-01
     0.039     0.150   0.765681E-01
     0.039     0.157   0.746562E-01
     0.039     0.165   0.727903E-01
     0.039     0.173   0.709695E-01
     0.039     0.181   0.691925E-01
     0.039     0.189   0.674583E-01
     0.039     0.197   0.657658E-01
     0.039     0.205   0.641141E-01
     0.039     0.213   0.625021E-01
     0.039     0.220   0.609290E-01
     0.039     0.228   0.593936E-01
     0.039     0.236   0.578951E-01
     0.039     0.244   0.564326E-01
     0.039     0.252   0.550053E-01
     0.039     0.260   0.536122E-01
     0.039     0.268   0.522526E-01
     0.039     0.276   0.509255E-01
     0.039     0.283   0.496303E-01
     0.039     0.291   0.483661E-01
     0.039     0.299   0.471322E-01
     0.039     0.307   0.459278E-01
     0.039     0.315   0.447522E-01
     0.039     0.323   0.436047E-01
     0.039     0.331   0.424846E-01
     0.039     0.339   0.413912E-01
     0.039     0.346   0.403240E-01
     0.039     0.354   0.392820E-01
     0.039     0.362   0.382650E-01
     0.039     0.370   0.372721E-01
     0.039     0.378   0.363028E-01
     0.039     0.386   0.353565E-01
     0.039     0.394   0.344327E-01
     0.039     0.402   0.335306E-01
     0.039     0.409   0.326500E-01
     0.039     0.417   0.317901E-01
     0.039     0.425   0.309506E-01
     0.039     0.433   0.301306E-01
     0.039     0.441   0.293302E-01
     0.039     0.449   0.285483E-01
     0.039     0.457   0.277849E-01
     0.039     0.465   0.270392E-01
     0.039     0.472   0.263110E-01
     0.039     0.480   0.255996E-01
     0.039     0.488   0.249049E-01
     0.039     0.496   0.242261E-01
     0.039     0.504   0.235632E-01
     0.039     0.512   0.229153E-01
     0.039     0.520   0.222825E-01
     0.039     0.528   0.216640E-01
     0.039     0.535   0.210598E-01
     0.039     0.543   0.204691E-01
     0.039     0.551   0.198919E-01
     0.039     0.559   0.193276E-01
     0.039     0.567   0.187762E-01
     0.039     0.575   0.182368E-01
     0.039     0.583   0.177096E-01
     0.039     0.591   0.171940E-01
     0.039     0.598   0.166897E-01
     0.039     0.606   0.161964E-01
     0.039     0.614   0.157139E-01
     0.039     0.622   0.152417E-01
     0.039     0.630   0.147797E-01
     0.039     0.638   0.143275E-01
     0.039     0.646   0.138848E-01
     0.039     0.654   0.134513E-01
     0.039     0.661   0.130269E-01
     0.039     0.669   0.126111E-01
     0.039     0.677   0.122039E-01
     0.039     0.685   0.118047E-01
     0.039     0.693   0.114136E-01
     0.039     0.701   0.110300E-01
     0.039     0.709   0.106540E-01
     0.039     0.717   0.102850E-01
     0.039     0.724   0.992315E-02
     0.039     0.732   0.956786E-02
     0.039     0.740   0.921916E-02
     0.039     0.748   0.887661E-02
     0.039     0.756   0.854020E-02
     0.039     0.764   0.820949E-02
     0.039     0.772   0.788448E-02
     0.039     0.780   0.756474E-02
     0.039     0.787   0.725027E-02
     0.039     0.795   0.694066E-02
     0.039     0.803   0.663589E-02
     0.039     0.811   0.633559E-02
     0.039     0.819   0.603971E-02
     0.039     0.827   0.574791E-02
     0.039     0.835   0.546013E-02
     0.039     0.843   0.517604E-02
     0.039     0.850   0.489559E-02
     0.039     0.858   0.461844E-02
     0.039     0.866   0.434455E-02
     0.039     0.874   0.407359E-02
     0.039     0.882   0.380551E-02
     0.039     0.890   0.354002E-02
     0.039     0.898   0.327702E-02
     0.039     0.906   0.301624E-02
     0.039     0.913   0.275760E-02
     0.039     0.921   0.250084E-02
     0.039     0.929   0.224584E-02
     0.039     0.937   0.199237E-02
     0.039     0.945   0.174032E-02
     0.039     0.953   0.148945E-02
     0.039     0.961   0.123964E-02
     0.039     0.969   0.990671E-03
     0.039     0.976   0.742406E-03
     0.039     0.984   0.494647E-03
     0.039     0.992   0.247239E-03
     0.039     1.000    0.00000    
     0.047     0.000   0.147877    
     0.047     0.008   0.144230    
     0.047     0.016   0.140671    
     0.047     0.024   0.137198    
     0.047     0.031   0.133809    
     0.047     0.039   0.130502    
     0.047     0.047   0.127276    
     0.047     0.055   0.124127    
     0.047     0.063   0.121054    
     0.047     0.071   0.118055    
     0.047     0.079   0.115129    
     0.047     0.087   0.112274    
     0.047     0.094   0.109488    
     0.047     0.102   0.106769    
     0.047     0.110   0.104115    
     0.047     0.118   0.101526    
     0.047     0.126   0.989992E-01
     0.047     0.134   0.965333E-01
     0.047     0.142   0.941269E-01
     0.047     0.150   0.917786E-01
     0.047     0.157   0.894868E-01
     0.047     0.165   0.872504E-01
     0.047     0.173   0.850677E-01
     0.047     0.181   0.829378E-01
     0.047     0.189   0.808590E-01
     0.047     0.197   0.788304E-01
     0.047     0.205   0.768505E-01
     0.047     0.213   0.749184E-01
     0.047     0.220   0.730326E-01
     0.047     0.228   0.711923E-01
     0.047     0.236   0.693961E-01
     0.047     0.244   0.676432E-01
     0.047     0.252   0.659323E-01
     0.047     0.260   0.642625E-01
     0.047     0.268   0.626327E-01
     0.047     0.276   0.610421E-01
     0.047     0.283   0.594895E-01
     0.047     0.291   0.579742E-01
     0.047     0.299   0.564951E-01
     0.047     0.307   0.550515E-01
     0.047     0.315   0.536423E-01
     0.047     0.323   0.522669E-01
     0.047     0.331   0.509242E-01
     0.047     0.339   0.496137E-01
     0.047     0.346   0.483343E-01
     0.047     0.354   0.470856E-01
     0.047     0.362   0.458664E-01
     0.047     0.370   0.446763E-01
     0.047     0.378   0.435144E-01
     0.047     0.386   0.423802E-01
     0.047     0.394   0.412727E-01
     0.047     0.402   0.401916E-01
     0.047     0.409   0.391360E-01
     0.047     0.417   0.381054E-01
     0.047     0.425   0.370989E-01
     0.047     0.433   0.361163E-01
     0.047     0.441   0.351566E-01
     0.047     0.449   0.342196E-01
     0.047     0.457   0.333044E-01
     0.047     0.465   0.324107E-01
     0.047     0.472   0.315377E-01
     0.047     0.480   0.306852E-01
     0.047     0.488   0.298523E-01