Title="Temperature Data"
Variables="X","Y","T"
 
Zone I=   128, J=   128, F=POINT
     0.000     0.000    0.00000    
     0.000     0.008    0.00000    
     0.000     0.016    0.00000    
     0.000     0.024    0.00000    
     0.000     0.031    0.00000    
     0.000     0.039    0.00000    
     0.000     0.047    0.00000    
     0.000     0.055    0.00000    
     0.000     0.063    0.00000    
     0.000     0.071    0.00000    
     0.000     0.079    0.00000    
     0.000     0.087    0.00000    
     0.000     0.094    0.00000    
     0.000     0.102    0.00000    
     0.000     0.110    0.00000    
     0.000     0.118    0.00000    
     0.000     0.126    0.00000    
     0.000     0.134    0.00000    
     0.000     0.142    0.00000    
     0.000     0.150    0.00000    
     0.000     0.157    0.00000    
     0.000     0.165    0.00000    
     0.000     0.173    0.00000    
     0.000     0.181    0.00000    
     0.000     0.189    0.00000    
     0.000     0.197    0.00000    
     0.000     0.205    0.00000    
     0.000     0.213    0.00000    
     0.000     0.220    0.00000    
     0.000     0.228    0.00000    
     0.000     0.236    0.00000    
     0.000     0.244    0.00000    
     0.000     0.252    0.00000    
     0.000     0.260    0.00000    
     0.000     0.268    0.00000    
     0.000     0.276    0.00000    
     0.000     0.283    0.00000    
     0.000     0.291    0.00000    
     0.000     0.299    0.00000    
     0.000     0.307    0.00000    
     0.000     0.315    0.00000    
     0.000     0.323    0.00000    
     0.000     0.331    0.00000    
     0.000     0.339    0.00000    
     0.000     0.346    0.00000    
     0.000     0.354    0.00000    
     0.000     0.362    0.00000    
     0.000     0.370    0.00000    
     0.000     0.378    0.00000    
     0.000     0.386    0.00000    
     0.000     0.394    0.00000    
     0.000     0.402    0.00000    
     0.000     0.409    0.00000    
     0.000     0.417    0.00000    
     0.000     0.425    0.00000    
     0.000     0.433    0.00000    
     0.000     0.441    0.00000    
     0.000     0.449    0.00000    
     0.000     0.457    0.00000    
     0.000     0.465    0.00000    
     0.000     0.472    0.00000    
     0.000     0.480    0.00000    
     0.000     0.488    0.00000    
     0.000     0.496    0.00000    
     0.000     0.504    0.00000    
     0.000     0.512    0.00000    
     0.000     0.520    0.00000    
     0.000     0.528    0.00000    
     0.000     0.535    0.00000    
     0.000     0.543    0.00000    
     0.000     0.551    0.00000    
     0.000     0.559    0.00000    
     0.000     0.567    0.00000    
     0.000     0.575    0.00000    
     0.000     0.583    0.00000    
     0.000     0.591    0.00000    
     0.000     0.598    0.00000    
     0.000     0.606    0.00000    
     0.000     0.614    0.00000    
     0.000     0.622    0.00000    
     0.000     0.630    0.00000    
     0.000     0.638    0.00000    
     0.000     0.646    0.00000    
     0.000     0.654    0.00000    
     0.000     0.661    0.00000    
     0.000     0.669    0.00000    
     0.000     0.677    0.00000    
     0.000     0.685    0.00000    
     0.000     0.693    0.00000    
     0.000     0.701    0.00000    
     0.000     0.709    0.00000    
     0.000     0.717    0.00000    
     0.000     0.724    0.00000    
     0.000     0.732    0.00000    
     0.000     0.740    0.00000    
     0.000     0.748    0.00000    
     0.000     0.756    0.00000    
     0.000     0.764    0.00000    
     0.000     0.772    0.00000    
     0.000     0.780    0.00000    
     0.000     0.787    0.00000    
     0.000     0.795    0.00000    
     0.000     0.803    0.00000    
     0.000     0.811    0.00000    
     0.000     0.819    0.00000    
     0.000     0.827    0.00000    
     0.000     0.835    0.00000    
     0.000     0.843    0.00000    
     0.000     0.850    0.00000    
     0.000     0.858    0.00000    
     0.000     0.866    0.00000    
     0.000     0.874    0.00000    
     0.000     0.882    0.00000    
     0.000     0.890    0.00000    
     0.000     0.898    0.00000    
     0.000     0.906    0.00000    
     0.000     0.913    0.00000    
     0.000     0.921    0.00000    
     0.000     0.929    0.00000    
     0.000     0.937    0.00000    
     0.000     0.945    0.00000    
     0.000     0.953    0.00000    
     0.000     0.961    0.00000    
     0.000     0.969    0.00000    
     0.000     0.976    0.00000    
     0.000     0.984    0.00000    
     0.000     0.992    0.00000    
     0.000     1.000    0.00000    
     0.008     0.000   0.247344E-01
     0.008     0.008   0.240710E-01
     0.008     0.016   0.234225E-01
     0.008     0.024   0.227884E-01
     0.008     0.031   0.221685E-01
     0.008     0.039   0.215625E-01
     0.008     0.047   0.209702E-01
     0.008     0.055   0.203912E-01
     0.008     0.063   0.198254E-01
     0.008     0.071   0.192723E-01
     0.008     0.079   0.187318E-01
     0.008     0.087   0.182036E-01
     0.008     0.094   0.176876E-01
     0.008     0.102   0.171832E-01
     0.008     0.110   0.166907E-01
     0.008     0.118   0.162093E-01
     0.008     0.126   0.157394E-01
     0.008     0.134   0.152801E-01
     0.008     0.142   0.148319E-01
     0.008     0.150   0.143939E-01
     0.008     0.157   0.139666E-01
     0.008     0.165   0.135491E-01
     0.008     0.173   0.131419E-01
     0.008     0.181   0.127442E-01
     0.008     0.189   0.123563E-01
     0.008     0.197   0.119776E-01
     0.008     0.205   0.116085E-01
     0.008     0.213   0.112480E-01
     0.008     0.220   0.108969E-01
     0.008     0.228   0.105541E-01
     0.008     0.236   0.102203E-01
     0.008     0.244   0.989447E-02
     0.008     0.252   0.957731E-02
     0.008     0.260   0.926788E-02
     0.008     0.268   0.896680E-02
     0.008     0.276   0.867313E-02
     0.008     0.283   0.838752E-02
     0.008     0.291   0.810903E-02
     0.008     0.299   0.783831E-02
     0.008     0.307   0.757442E-02
     0.008     0.315   0.731803E-02
     0.008     0.323   0.706820E-02
     0.008     0.331   0.682559E-02
     0.008     0.339   0.658927E-02
     0.008     0.346   0.635991E-02
     0.008     0.354   0.613657E-02
     0.008     0.362   0.591994E-02
     0.008     0.370   0.570907E-02
     0.008     0.378   0.550467E-02
     0.008     0.386   0.530576E-02
     0.008     0.394   0.511308E-02
     0.008     0.402   0.492566E-02
     0.008     0.409   0.474421E-02
     0.008     0.417   0.456779E-02
     0.008     0.425   0.439711E-02
     0.008     0.433   0.423121E-02
     0.008     0.441   0.407082E-02
     0.008     0.449   0.391500E-02
     0.008     0.457   0.376446E-02
     0.008     0.465   0.361826E-02
     0.008     0.472   0.347711E-02
     0.008     0.480   0.334010E-02
     0.008     0.488   0.320791E-02
     0.008     0.496   0.307966E-02
     0.008     0.504   0.295600E-02
     0.008     0.512   0.283609E-02
     0.008     0.520   0.272056E-02
     0.008     0.528   0.260857E-02
     0.008     0.535   0.250075E-02
     0.008     0.543   0.239629E-02
     0.008     0.551   0.229580E-02
     0.008     0.559   0.219848E-02
     0.008     0.567   0.210493E-02
     0.008     0.575   0.201437E-02
     0.008     0.583   0.192738E-02
     0.008     0.591   0.184322E-02
     0.008     0.598   0.176243E-02
     0.008     0.606   0.168430E-02
     0.008     0.614   0.160936E-02
     0.008     0.622   0.153693E-02
     0.008     0.630   0.146749E-02
     0.008     0.638   0.140041E-02
     0.008     0.646   0.133615E-02
     0.008     0.654   0.127409E-02
     0.008     0.661   0.121469E-02
     0.008     0.669   0.115734E-02
     0.008     0.677   0.110248E-02
     0.008     0.685   0.104954E-02
     0.008     0.693   0.998927E-03
     0.008     0.701   0.950099E-03
     0.008     0.709   0.903444E-03
     0.008     0.717   0.858446E-03
     0.008     0.724   0.815470E-03
     0.008     0.732   0.774030E-03
     0.008     0.740   0.734464E-03
     0.008     0.748   0.696318E-03
     0.008     0.756   0.659906E-03
     0.008     0.764   0.624802E-03
     0.008     0.772   0.591296E-03
     0.008     0.780   0.558990E-03
     0.008     0.787   0.528150E-03
     0.008     0.795   0.498408E-03
     0.008     0.803   0.470006E-03
     0.008     0.811   0.442602E-03
     0.008     0.819   0.416417E-03
     0.008     0.827   0.391135E-03
     0.008     0.835   0.366954E-03
     0.008     0.843   0.343585E-03
     0.008     0.850   0.321203E-03
     0.008     0.858   0.299545E-03
     0.008     0.866   0.278764E-03
     0.008     0.874   0.258622E-03
     0.008     0.882   0.239252E-03
     0.008     0.890   0.220438E-03
     0.008     0.898   0.202292E-03
     0.008     0.906   0.184624E-03
     0.008     0.913   0.167523E-03
     0.008     0.921   0.150822E-03
     0.008     0.929   0.134589E-03
     0.008     0.937   0.118682E-03
     0.008     0.945   0.103147E-03
     0.008     0.953   0.878634E-04
     0.008     0.961   0.728577E-04
     0.008     0.969   0.580304E-04
     0.008     0.976   0.433879E-04
     0.008     0.984   0.288520E-04
     0.008     0.992   0.144082E-04
     0.008     1.000    0.00000    
     0.016     0.000   0.494537E-01
     0.016     0.008   0.481273E-01
     0.016     0.016   0.468305E-01
     0.016     0.024   0.455628E-01
     0.016     0.031   0.443234E-01
     0.016     0.039   0.431119E-01
     0.016     0.047   0.419276E-01
     0.016     0.055   0.407701E-01
     0.016     0.063   0.396385E-01
     0.016     0.071   0.385329E-01
     0.016     0.079   0.374521E-01
     0.016     0.087   0.363962E-01
     0.016     0.094   0.353641E-01
     0.016     0.102   0.343561E-01
     0.016     0.110   0.333710E-01
     0.016     0.118   0.324089E-01
     0.016     0.126   0.314689E-01
     0.016     0.134   0.305511E-01
     0.016     0.142   0.296544E-01
     0.016     0.150   0.287793E-01
     0.016     0.157   0.279243E-01
     0.016     0.165   0.270902E-01
     0.016     0.173   0.262755E-01
     0.016     0.181   0.254808E-01
     0.016     0.189   0.247048E-01
     0.016     0.197   0.239482E-01
     0.016     0.205   0.232095E-01
     0.016     0.213   0.224895E-01
     0.016     0.220   0.217867E-01
     0.016     0.228   0.211021E-01
     0.016     0.236   0.204339E-01
     0.016     0.244   0.197832E-01
     0.016     0.252   0.191484E-01
     0.016     0.260   0.185305E-01
     0.016     0.268   0.179277E-01
     0.016     0.276   0.173413E-01
     0.016     0.283   0.167695E-01
     0.016     0.291   0.162135E-01
     0.016     0.299   0.156714E-01
     0.016     0.307   0.151446E-01
     0.016     0.315   0.146312E-01
     0.016     0.323   0.141325E-01
     0.016     0.331   0.136466E-01
     0.016     0.339   0.131749E-01
     0.016     0.346   0.127155E-01
     0.016     0.354   0.122698E-01
     0.016     0.362   0.118358E-01
     0.016     0.370   0.114151E-01
     0.016     0.378   0.110055E-01
     0.016     0.386   0.106087E-01
     0.016     0.394   0.102226E-01
     0.016     0.402   0.984872E-02
     0.016     0.409   0.948510E-02
     0.016     0.417   0.913320E-02
     0.016     0.425   0.879110E-02
     0.016     0.433   0.846025E-02
     0.016     0.441   0.813875E-02
     0.016     0.449   0.782802E-02
     0.016     0.457   0.752621E-02
     0.016     0.465   0.723471E-02
     0.016     0.472   0.695170E-02
     0.016     0.480   0.667855E-02
     0.016     0.488   0.641347E-02
     0.016     0.496   0.615781E-02
     0.016     0.504   0.590982E-02
     0.016     0.512   0.567081E-02
     0.016     0.520   0.543908E-02
     0.016     0.528   0.521590E-02
     0.016     0.535   0.499961E-02
     0.016     0.543   0.479147E-02
     0.016     0.551   0.458985E-02
     0.016     0.559   0.439596E-02
     0.016     0.567   0.420823E-02
     0.016     0.575   0.402784E-02
     0.016     0.583   0.385326E-02
     0.016     0.591   0.368563E-02
     0.016     0.598   0.352347E-02
     0.016     0.606   0.336788E-02
     0.016     0.614   0.321745E-02
     0.016     0.622   0.307320E-02
     0.016     0.630   0.293380E-02
     0.016     0.638   0.280024E-02
     0.016     0.646   0.267121E-02
     0.016     0.654   0.254767E-02
     0.016     0.661   0.242837E-02
     0.016     0.669   0.231422E-02
     0.016     0.677   0.220404E-02
     0.016     0.685   0.209868E-02
     0.016     0.693   0.199701E-02
     0.016     0.701   0.189984E-02
     0.016     0.709   0.180612E-02
     0.016     0.717   0.171658E-02
     0.016     0.724   0.163024E-02
     0.016     0.732   0.154778E-02
     0.016     0.740   0.146829E-02
     0.016     0.748   0.139240E-02
     0.016     0.756   0.131923E-02
     0.016     0.764   0.124939E-02
     0.016     0.772   0.118206E-02
     0.016     0.780   0.111780E-02
     0.016     0.787   0.105582E-02
     0.016     0.795   0.996657E-03
     0.016     0.803   0.939584E-03
     0.016     0.811   0.885068E-03
     0.016     0.819   0.832451E-03
     0.016     0.827   0.782153E-03
     0.016     0.835   0.733567E-03
     0.016     0.843   0.687069E-03
     0.016     0.850   0.642105E-03
     0.016     0.858   0.599004E-03
     0.016     0.866   0.557265E-03
     0.016     0.874   0.517173E-03
     0.016     0.882   0.478276E-03
     0.016     0.890   0.440817E-03
     0.016     0.898   0.404391E-03
     0.016     0.906   0.369199E-03
     0.016     0.913   0.334884E-03
     0.016     0.921   0.301604E-03
     0.016     0.929   0.269048E-03
     0.016     0.937   0.237334E-03
     0.016     0.945   0.206194E-03
     0.016     0.953   0.175705E-03
     0.016     0.961   0.145644E-03
     0.016     0.969   0.116047E-03
     0.016     0.976   0.867334E-04
     0.016     0.984   0.576969E-04
     0.016     0.992   0.288024E-04
     0.016     1.000    0.00000    
     0.024     0.000   0.741428E-01
     0.024     0.008   0.721542E-01
     0.024     0.016   0.702100E-01
     0.024     0.024   0.683093E-01
     0.024     0.031   0.664513E-01
     0.024     0.039   0.646348E-01
     0.024     0.047   0.628594E-01
     0.024     0.055   0.611238E-01
     0.024     0.063   0.594277E-01
     0.024     0.071   0.577696E-01
     0.024     0.079   0.561497E-01
     0.024     0.087   0.545662E-01
     0.024     0.094   0.530194E-01
     0.024     0.102   0.515076E-01
     0.024     0.110   0.500312E-01
     0.024     0.118   0.485883E-01
     0.024     0.126   0.471795E-01
     0.024     0.134   0.458030E-01
     0.024     0.142   0.444593E-01
     0.024     0.150   0.431465E-01
     0.024     0.157   0.418655E-01
     0.024     0.165   0.406142E-01
     0.024     0.173   0.393935E-01
     0.024     0.181   0.382013E-01
     0.024     0.189   0.370388E-01
     0.024     0.197   0.359035E-01
     0.024     0.205   0.347970E-01
     0.024     0.213   0.337166E-01
     0.024     0.220   0.326640E-01
     0.024     0.228   0.316365E-01
     0.024     0.236   0.306357E-01
     0.024     0.244   0.296592E-01
     0.024     0.252   0.287085E-01
     0.024     0.260   0.277810E-01
     0.024     0.268   0.268784E-01
     0.024     0.276   0.259982E-01
     0.024     0.283   0.251420E-01
     0.024     0.291   0.243072E-01
     0.024     0.299   0.234957E-01
     0.024     0.307   0.227047E-01
     0.024     0.315   0.219362E-01
     0.024     0.323   0.211873E-01
     0.024     0.331   0.204601E-01
     0.024     0.339   0.197517E-01
     0.024     0.346   0.190642E-01
     0.024     0.354   0.183947E-01
     0.024     0.362   0.177453E-01
     0.024     0.370   0.171132E-01
     0.024     0.378   0.165005E-01
     0.024     0.386   0.159043E-01
     0.024     0.394   0.153267E-01
     0.024     0.402   0.147649E-01
     0.024     0.409   0.142210E-01
     0.024     0.417   0.136922E-01
     0.024     0.425   0.131806E-01
     0.024     0.433   0.126833E-01
     0.024     0.441   0.122025E-01
     0.024     0.449   0.117354E-01
     0.024     0.457   0.112842E-01
     0.024     0.465   0.108459E-01
     0.024     0.472   0.104228E-01
     0.024     0.480   0.100121E-01
     0.024     0.488   0.961588E-02
     0.024     0.496   0.923143E-02
     0.024     0.504   0.886078E-02
     0.024     0.512   0.850132E-02
     0.024     0.520   0.815501E-02
     0.024     0.528   0.781931E-02
     0.024     0.535   0.749614E-02
     0.024     0.543   0.718301E-02
     0.024     0.551   0.688179E-02
     0.024     0.559   0.659006E-02
     0.024     0.567   0.630964E-02
     0.024     0.575   0.603818E-02
     0.024     0.583   0.577743E-02
     0.024     0.591   0.552514E-02
     0.024     0.598   0.528298E-02
     0.024     0.606   0.504879E-02
     0.024     0.614   0.482416E-02
     0.024     0.622   0.460702E-02
     0.024     0.630   0.439889E-02
     0.024     0.638   0.419779E-02
     0.024     0.646   0.400518E-02
     0.024     0.654   0.381915E-02
     0.024     0.661   0.364109E-02
     0.024     0.669   0.346918E-02
     0.024     0.677   0.330474E-02
     0.024     0.685   0.314605E-02
     0.024     0.693   0.299434E-02
     0.024     0.701   0.284797E-02
     0.024     0.709   0.270812E-02
     0.024     0.717   0.257324E-02
     0.024     0.724   0.244441E-02
     0.024     0.732   0.232019E-02
     0.024     0.740   0.220159E-02
     0.024     0.748   0.208725E-02
     0.024     0.756   0.197810E-02
     0.024     0.764   0.187288E-02
     0.024     0.772   0.177244E-02
     0.024     0.780   0.167560E-02
     0.024     0.787   0.158316E-02
     0.024     0.795   0.149400E-02
     0.024     0.803   0.140887E-02
     0.024     0.811   0.132672E-02
     0.024     0.819   0.124823E-02
     0.024     0.827   0.117245E-02
     0.024     0.835   0.109996E-02
     0.024     0.843   0.102991E-02
     0.024     0.850   0.962822E-03
     0.024     0.858   0.897901E-03
     0.024     0.866   0.835610E-03
     0.024     0.874   0.775234E-03
     0.024     0.882   0.717170E-03
     0.024     0.890   0.660776E-03
     0.024     0.898   0.606382E-03
     0.024     0.906   0.553420E-03
     0.024     0.913   0.502158E-03
     0.024     0.921   0.452096E-03
     0.024     0.929   0.403439E-03
     0.024     0.937   0.355755E-03
     0.024     0.945   0.309189E-03
     0.024     0.953   0.263375E-03
     0.024     0.961   0.218395E-03
     0.024     0.969   0.173949E-03
     0.024     0.976   0.130057E-03
     0.024     0.984   0.864853E-04
     0.024     0.992   0.431895E-04
     0.024     1.000    0.00000    
     0.031     0.000   0.987864E-01
     0.031     0.008   0.961369E-01
     0.031     0.016   0.935465E-01
     0.031     0.024   0.910141E-01
     0.031     0.031   0.885383E-01
     0.031     0.039   0.861184E-01
     0.031     0.047   0.837525E-01
     0.031     0.055   0.814404E-01
     0.031     0.063   0.791801E-01
     0.031     0.071   0.769714E-01
     0.031     0.079   0.748125E-01
     0.031     0.087   0.727033E-01
     0.031     0.094   0.706418E-01
     0.031     0.102   0.686282E-01
     0.031     0.110   0.666602E-01
     0.031     0.118   0.647386E-01
     0.031     0.126   0.628607E-01
     0.031     0.134   0.610275E-01
     0.031     0.142   0.592363E-01
     0.031     0.150   0.574881E-01
     0.031     0.157   0.557803E-01
     0.031     0.165   0.541141E-01
     0.031     0.173   0.524866E-01
     0.031     0.181   0.508993E-01
     0.031     0.189   0.493492E-01
     0.031     0.197   0.478378E-01
     0.031     0.205   0.463622E-01
     0.031     0.213   0.449241E-01
     0.031     0.220   0.435202E-01
     0.031     0.228   0.421525E-01
     0.031     0.236   0.408178E-01
     0.031     0.244   0.395181E-01
     0.031     0.252   0.382499E-01
     0.031     0.260   0.370156E-01
     0.031     0.268   0.358116E-01
     0.031     0.276   0.346403E-01
     0.031     0.283   0.334980E-01
     0.031     0.291   0.323873E-01
     0.031     0.299   0.313045E-01
     0.031     0.307   0.302522E-01
     0.031     0.315   0.292266E-01
     0.031     0.323   0.282304E-01
     0.031     0.331   0.272598E-01
     0.031     0.339   0.263176E-01
     0.031     0.346   0.253999E-01
     0.031     0.354   0.245096E-01
     0.031     0.362   0.236427E-01
     0.031     0.370   0.228022E-01
     0.031     0.378   0.219842E-01
     0.031     0.386   0.211914E-01
     0.031     0.394   0.204202E-01
     0.031     0.402   0.196733E-01
     0.031     0.409   0.189470E-01
     0.031     0.417   0.182441E-01
     0.031     0.425   0.175607E-01
     0.031     0.433   0.168998E-01
     0.031     0.441   0.162576E-01
     0.031     0.449   0.156369E-01
     0.031     0.457   0.150340E-01
     0.031     0.465   0.144517E-01
     0.031     0.472   0.138864E-01
     0.031     0.480   0.133408E-01
     0.031     0.488   0.128112E-01
     0.031     0.496   0.123006E-01
     0.031     0.504   0.118052E-01
     0.031     0.512   0.113277E-01
     0.031     0.520   0.108648E-01
     0.031     0.528   0.104190E-01
     0.031     0.535   0.998699E-02
     0.031     0.543   0.957122E-02
     0.031     0.551   0.916847E-02
     0.031     0.559   0.878116E-02
     0.031     0.567   0.840617E-02
     0.031     0.575   0.804582E-02
     0.031     0.583   0.769709E-02
     0.031     0.591   0.736224E-02
     0.031     0.598   0.703832E-02
     0.031     0.606   0.672752E-02
     0.031     0.614   0.642702E-02
     0.031     0.622   0.613889E-02
     0.031     0.630   0.586043E-02
     0.031     0.638   0.559362E-02
     0.031     0.646   0.533588E-02
     0.031     0.654   0.508910E-02
     0.031     0.661   0.485080E-02
     0.031     0.669   0.462278E-02
     0.031     0.677   0.440269E-02
     0.031     0.685   0.419221E-02
     0.031     0.693   0.398913E-02
     0.031     0.701   0.379504E-02
     0.031     0.709   0.360781E-02
     0.031     0.717   0.342896E-02
     0.031     0.724   0.325648E-02
     0.031     0.732   0.309178E-02
     0.031     0.740   0.293298E-02
     0.031     0.748   0.278138E-02
     0.031     0.756   0.263523E-02
     0.031     0.764   0.249573E-02
     0.031     0.772   0.236124E-02
     0.031     0.780   0.223286E-02
     0.031     0.787   0.210906E-02
     0.031     0.795   0.199088E-02
     0.031     0.803   0.187687E-02
     0.031     0.811   0.176797E-02
     0.031     0.819   0.166287E-02
     0.031     0.827   0.156239E-02
     0.031     0.835   0.146534E-02
     0.031     0.843   0.137246E-02
     0.031     0.850   0.128264E-02
     0.031     0.858   0.119654E-02
     0.031     0.866   0.111317E-02
     0.031     0.874   0.103308E-02
     0.031     0.882   0.955382E-03
     0.031     0.890   0.880556E-03
     0.031     0.898   0.807793E-03
     0.031     0.906   0.737495E-03
     0.031     0.913   0.668949E-03
     0.031     0.921   0.602470E-03
     0.031     0.929   0.537439E-03
     0.031     0.937   0.474087E-03
     0.031     0.945   0.411884E-03
     0.031     0.953   0.350980E-03
     0.031     0.961   0.290933E-03
     0.031     0.969   0.231809E-03
     0.031     0.976   0.173254E-03
     0.031     0.984   0.115253E-03
     0.031     0.992   0.575343E-04
     0.031     1.000    0.00000    
     0.039     0.000   0.123370    
     0.039     0.008   0.120061    
     0.039     0.016   0.116826    
     0.039     0.024   0.113663    
     0.039     0.031   0.110571    
     0.039     0.039   0.107549    
     0.039     0.047   0.104595    
     0.039     0.055   0.101707    
     0.039     0.063   0.988845E-01
     0.039     0.071   0.961256E-01
     0.039     0.079   0.934301E-01
     0.039     0.087   0.907953E-01
     0.039     0.094   0.882215E-01
     0.039     0.102   0.857060E-01
     0.039     0.110   0.832493E-01
     0.039     0.118   0.808484E-01
     0.039     0.126   0.785043E-01
     0.039     0.134   0.762137E-01
     0.039     0.142   0.739779E-01
     0.039     0.150   0.717935E-01
     0.039     0.157   0.696620E-01
     0.039     0.165   0.675799E-01
     0.039     0.173   0.655487E-01
     0.039     0.181   0.635650E-01
     0.039     0.189   0.616306E-01
     0.039     0.197   0.597416E-01
     0.039     0.205   0.579003E-01
     0.039     0.213   0.561027E-01
     0.039     0.220   0.543511E-01
     0.039     0.228   0.526414E-01
     0.039     0.236   0.509763E-01
     0.039     0.244   0.493513E-01
     0.039     0.252   0.477694E-01
     0.039     0.260   0.462261E-01
     0.039     0.268   0.447243E-01
     0.039     0.276   0.432596E-01
     0.039     0.283   0.418350E-01
     0.039     0.291   0.404460E-01
     0.039     0.299   0.390957E-01
     0.039     0.307   0.377795E-01
     0.039     0.315   0.365007E-01
     0.039     0.323   0.352545E-01
     0.039     0.331   0.340445E-01
     0.039     0.339   0.328657E-01
     0.039     0.346   0.317218E-01
     0.039     0.354   0.306078E-01
     0.039     0.362   0.295273E-01
     0.039     0.370   0.284755E-01
     0.039     0.378   0.274560E-01
     0.039     0.386   0.264639E-01
     0.039     0.394   0.255029E-01
     0.039     0.402   0.245681E-01
     0.039     0.409   0.236630E-01
     0.039     0.417   0.227831E-01
     0.039     0.425   0.219317E-01
     0.039     0.433   0.211043E-01
     0.039     0.441   0.203043E-01
     0.039     0.449   0.195271E-01
     0.039     0.457   0.187763E-01
     0.039     0.465   0.180471E-01
     0.039     0.472   0.173430E-01
     0.039     0.480   0.166597E-01
     0.039     0.488   0.160003E-01
     0.039     0.496   0.153606E-01
     0.039     0.504   0.147439E-01
     0.039     0.512   0.141457E-01
     0.039     0.520   0.135695E-01
     0.039     0.528   0.130109E-01
     0.039     0.535   0.124732E-01
     0.039     0.543   0.119522E-01
     0.039     0.551   0.114509E-01
     0.039     0.559   0.109655E-01
     0.039     0.567   0.104989E-01
     0.039     0.575   0.100472E-01
     0.039     0.583   0.961334E-02
     0.039     0.591   0.919355E-02
     0.039     0.598   0.879060E-02
     0.039     0.606   0.840092E-02
     0.039     0.614   0.802714E-02
     0.039     0.622   0.766583E-02
     0.039     0.630   0.731952E-02
     0.039     0.638   0.698491E-02
     0.039     0.646   0.666441E-02
     0.039     0.654   0.635487E-02
     0.039     0.661   0.605858E-02
     0.039     0.669   0.577254E-02
     0.039     0.677   0.549892E-02
     0.039     0.685   0.523486E-02
     0.039     0.693   0.498242E-02
     0.039     0.701   0.473888E-02
     0.039     0.709   0.450617E-02
     0.039     0.717   0.428173E-02
     0.039     0.724   0.406738E-02
     0.039     0.732   0.386068E-02
     0.039     0.740   0.366334E-02
     0.039     0.748   0.347308E-02
     0.039     0.756   0.329146E-02
     0.039     0.764   0.311637E-02
     0.039     0.772   0.294925E-02
     0.039     0.780   0.278811E-02
     0.039     0.787   0.263429E-02
     0.039     0.795   0.248594E-02
     0.039     0.803   0.234428E-02
     0.039     0.811   0.220760E-02
     0.039     0.819   0.207699E-02
     0.039     0.827   0.195089E-02
     0.039     0.835   0.183028E-02
     0.039     0.843   0.171372E-02
     0.039     0.850   0.160209E-02
     0.039     0.858   0.149406E-02
     0.039     0.866   0.139041E-02
     0.039     0.874   0.128995E-02
     0.039     0.882   0.119333E-02
     0.039     0.890   0.109950E-02
     0.039     0.898   0.100899E-02
     0.039     0.906   0.920862E-03
     0.039     0.913   0.835565E-03
     0.039     0.921   0.752263E-03
     0.039     0.929   0.671301E-03
     0.039     0.937   0.591958E-03
     0.039     0.945   0.514474E-03
     0.039     0.953   0.438242E-03
     0.039     0.961   0.363398E-03
     0.039     0.969   0.289443E-03
     0.039     0.976   0.216409E-03
     0.039     0.984   0.143907E-03
     0.039     0.992   0.718650E-04
     0.039     1.000    0.00000    
     0.047     0.000   0.147877    
     0.047     0.008   0.143911    
     0.047     0.016   0.140034    
     0.047     0.024   0.136243    
     0.047     0.031   0.132537    
     0.047     0.039   0.128914    
     0.047     0.047   0.125373    
     0.047     0.055   0.121911    
     0.047     0.063   0.118528    
     0.047     0.071   0.115222    
     0.047     0.079   0.111990    
     0.047     0.087   0.108833    
     0.047     0.094   0.105746    
     0.047     0.102   0.102732    
     0.047     0.110   0.997864E-01
     0.047     0.118   0.969098E-01
     0.047     0.126   0.940987E-01
     0.047     0.134   0.913545E-01
     0.047     0.142   0.886731E-01
     0.047     0.150   0.860563E-01
     0.047     0.157   0.834998E-01
     0.047     0.165   0.810056E-01
     0.047     0.173   0.785693E-01
     0.047     0.181   0.761932E-01
     0.047     0.189   0.738727E-01
     0.047     0.197   0.716104E-01
     0.047     0.205   0.694014E-01
     0.047     0.213   0.672486E-01
     0.047     0.220   0.651471E-01
     0.047     0.228   0.630998E-01
     0.047     0.236   0.611018E-01
     0.047     0.244   0.591562E-01
     0.047     0.252   0.572578E-01
     0.047     0.260   0.554101E-01
     0.047     0.268   0.536078E-01
     0.047     0.276   0.518544E-01
     0.047     0.283   0.501445E-01
     0.047     0.291   0.484819E-01
     0.047     0.299   0.468610E-01
     0.047     0.307   0.452857E-01
     0.047     0.315   0.437504E-01
     0.047     0.323   0.422592E-01
     0.047     0.331   0.408063E-01
     0.047     0.339   0.393959E-01
     0.047     0.346   0.380222E-01
     0.047     0.354   0.366894E-01
     0.047     0.362   0.353917E-01
     0.047     0.370   0.341335E-01
     0.047     0.378   0.329090E-01
     0.047     0.386   0.317223E-01
     0.047     0.394   0.305678E-01
     0.047     0.402   0.294498E-01
     0.047     0.409   0.283625E-01
     0.047     0.417   0.273103E-01
     0.047     0.425   0.262873E-01
     0.047     0.433   0.252980E-01
     0.047     0.441   0.243366E-01
     0.047     0.449   0.234075E-01
     0.047     0.457   0.225050E-01
     0.047     0.465   0.216334E-01
     0.047     0.472   0.207871E-01
     0.047     0.480   0.199703E-01
     0.047     0.488   0.191777E-01