Title="Temperature Data"
Variables="X","Y","T"
 
Zone I=   128, J=   128, F=POINT
     0.000     0.000    0.00000    
     0.000     0.008    0.00000    
     0.000     0.016    0.00000    
     0.000     0.024    0.00000    
     0.000     0.031    0.00000    
     0.000     0.039    0.00000    
     0.000     0.047    0.00000    
     0.000     0.055    0.00000    
     0.000     0.063    0.00000    
     0.000     0.071    0.00000    
     0.000     0.079    0.00000    
     0.000     0.087    0.00000    
     0.000     0.094    0.00000    
     0.000     0.102    0.00000    
     0.000     0.110    0.00000    
     0.000     0.118    0.00000    
     0.000     0.126    0.00000    
     0.000     0.134    0.00000    
     0.000     0.142    0.00000    
     0.000     0.150    0.00000    
     0.000     0.157    0.00000    
     0.000     0.165    0.00000    
     0.000     0.173    0.00000    
     0.000     0.181    0.00000    
     0.000     0.189    0.00000    
     0.000     0.197    0.00000    
     0.000     0.205    0.00000    
     0.000     0.213    0.00000    
     0.000     0.220    0.00000    
     0.000     0.228    0.00000    
     0.000     0.236    0.00000    
     0.000     0.244    0.00000    
     0.000     0.252    0.00000    
     0.000     0.260    0.00000    
     0.000     0.268    0.00000    
     0.000     0.276    0.00000    
     0.000     0.283    0.00000    
     0.000     0.291    0.00000    
     0.000     0.299    0.00000    
     0.000     0.307    0.00000    
     0.000     0.315    0.00000    
     0.000     0.323    0.00000    
     0.000     0.331    0.00000    
     0.000     0.339    0.00000    
     0.000     0.346    0.00000    
     0.000     0.354    0.00000    
     0.000     0.362    0.00000    
     0.000     0.370    0.00000    
     0.000     0.378    0.00000    
     0.000     0.386    0.00000    
     0.000     0.394    0.00000    
     0.000     0.402    0.00000    
     0.000     0.409    0.00000    
     0.000     0.417    0.00000    
     0.000     0.425    0.00000    
     0.000     0.433    0.00000    
     0.000     0.441    0.00000    
     0.000     0.449    0.00000    
     0.000     0.457    0.00000    
     0.000     0.465    0.00000    
     0.000     0.472    0.00000    
     0.000     0.480    0.00000    
     0.000     0.488    0.00000    
     0.000     0.496    0.00000    
     0.000     0.504    0.00000    
     0.000     0.512    0.00000    
     0.000     0.520    0.00000    
     0.000     0.528    0.00000    
     0.000     0.535    0.00000    
     0.000     0.543    0.00000    
     0.000     0.551    0.00000    
     0.000     0.559    0.00000    
     0.000     0.567    0.00000    
     0.000     0.575    0.00000    
     0.000     0.583    0.00000    
     0.000     0.591    0.00000    
     0.000     0.598    0.00000    
     0.000     0.606    0.00000    
     0.000     0.614    0.00000    
     0.000     0.622    0.00000    
     0.000     0.630    0.00000    
     0.000     0.638    0.00000    
     0.000     0.646    0.00000    
     0.000     0.654    0.00000    
     0.000     0.661    0.00000    
     0.000     0.669    0.00000    
     0.000     0.677    0.00000    
     0.000     0.685    0.00000    
     0.000     0.693    0.00000    
     0.000     0.701    0.00000    
     0.000     0.709    0.00000    
     0.000     0.717    0.00000    
     0.000     0.724    0.00000    
     0.000     0.732    0.00000    
     0.000     0.740    0.00000    
     0.000     0.748    0.00000    
     0.000     0.756    0.00000    
     0.000     0.764    0.00000    
     0.000     0.772    0.00000    
     0.000     0.780    0.00000    
     0.000     0.787    0.00000    
     0.000     0.795    0.00000    
     0.000     0.803    0.00000    
     0.000     0.811    0.00000    
     0.000     0.819    0.00000    
     0.000     0.827    0.00000    
     0.000     0.835    0.00000    
     0.000     0.843    0.00000    
     0.000     0.850    0.00000    
     0.000     0.858    0.00000    
     0.000     0.866    0.00000    
     0.000     0.874    0.00000    
     0.000     0.882    0.00000    
     0.000     0.890    0.00000    
     0.000     0.898    0.00000    
     0.000     0.906    0.00000    
     0.000     0.913    0.00000    
     0.000     0.921    0.00000    
     0.000     0.929    0.00000    
     0.000     0.937    0.00000    
     0.000     0.945    0.00000    
     0.000     0.953    0.00000    
     0.000     0.961    0.00000    
     0.000     0.969    0.00000    
     0.000     0.976    0.00000    
     0.000     0.984    0.00000    
     0.000     0.992    0.00000    
     0.000     1.000    0.00000    
     0.008     0.000   0.247344E-01
     0.008     0.008   0.241261E-01
     0.008     0.016   0.235325E-01
     0.008     0.024   0.229534E-01
     0.008     0.031   0.223883E-01
     0.008     0.039   0.218369E-01
     0.008     0.047   0.212988E-01
     0.008     0.055   0.207738E-01
     0.008     0.063   0.202616E-01
     0.008     0.071   0.197617E-01
     0.008     0.079   0.192740E-01
     0.008     0.087   0.187981E-01
     0.008     0.094   0.183337E-01
     0.008     0.102   0.178805E-01
     0.008     0.110   0.174384E-01
     0.008     0.118   0.170069E-01
     0.008     0.126   0.165858E-01
     0.008     0.134   0.161750E-01
     0.008     0.142   0.157740E-01
     0.008     0.150   0.153828E-01
     0.008     0.157   0.150010E-01
     0.008     0.165   0.146284E-01
     0.008     0.173   0.142648E-01
     0.008     0.181   0.139100E-01
     0.008     0.189   0.135638E-01
     0.008     0.197   0.132259E-01
     0.008     0.205   0.128961E-01
     0.008     0.213   0.125743E-01
     0.008     0.220   0.122602E-01
     0.008     0.228   0.119537E-01
     0.008     0.236   0.116546E-01
     0.008     0.244   0.113626E-01
     0.008     0.252   0.110777E-01
     0.008     0.260   0.107995E-01
     0.008     0.268   0.105281E-01
     0.008     0.276   0.102632E-01
     0.008     0.283   0.100046E-01
     0.008     0.291   0.975218E-02
     0.008     0.299   0.950583E-02
     0.008     0.307   0.926534E-02
     0.008     0.315   0.903061E-02
     0.008     0.323   0.880146E-02
     0.008     0.331   0.857778E-02
     0.008     0.339   0.835941E-02
     0.008     0.346   0.814624E-02
     0.008     0.354   0.793812E-02
     0.008     0.362   0.773495E-02
     0.008     0.370   0.753657E-02
     0.008     0.378   0.734290E-02
     0.008     0.386   0.715379E-02
     0.008     0.394   0.696914E-02
     0.008     0.402   0.678883E-02
     0.008     0.409   0.661277E-02
     0.008     0.417   0.644081E-02
     0.008     0.425   0.627290E-02
     0.008     0.433   0.610889E-02
     0.008     0.441   0.594873E-02
     0.008     0.449   0.579226E-02
     0.008     0.457   0.563944E-02
     0.008     0.465   0.549014E-02
     0.008     0.472   0.534431E-02
     0.008     0.480   0.520180E-02
     0.008     0.488   0.506259E-02
     0.008     0.496   0.492654E-02
     0.008     0.504   0.479360E-02
     0.008     0.512   0.466367E-02
     0.008     0.520   0.453669E-02
     0.008     0.528   0.441256E-02
     0.008     0.535   0.429123E-02
     0.008     0.543   0.417259E-02
     0.008     0.551   0.405660E-02
     0.008     0.559   0.394317E-02
     0.008     0.567   0.383225E-02
     0.008     0.575   0.372373E-02
     0.008     0.583   0.361760E-02
     0.008     0.591   0.351375E-02
     0.008     0.598   0.341214E-02
     0.008     0.606   0.331269E-02
     0.008     0.614   0.321536E-02
     0.008     0.622   0.312006E-02
     0.008     0.630   0.302676E-02
     0.008     0.638   0.293538E-02
     0.008     0.646   0.284589E-02
     0.008     0.654   0.275820E-02
     0.008     0.661   0.267228E-02
     0.008     0.669   0.258806E-02
     0.008     0.677   0.250552E-02
     0.008     0.685   0.242456E-02
     0.008     0.693   0.234517E-02
     0.008     0.701   0.226728E-02
     0.008     0.709   0.219085E-02
     0.008     0.717   0.211582E-02
     0.008     0.724   0.204216E-02
     0.008     0.732   0.196980E-02
     0.008     0.740   0.189872E-02
     0.008     0.748   0.182886E-02
     0.008     0.756   0.176019E-02
     0.008     0.764   0.169263E-02
     0.008     0.772   0.162619E-02
     0.008     0.780   0.156078E-02
     0.008     0.787   0.149640E-02
     0.008     0.795   0.143297E-02
     0.008     0.803   0.137048E-02
     0.008     0.811   0.130887E-02
     0.008     0.819   0.124811E-02
     0.008     0.827   0.118816E-02
     0.008     0.835   0.112898E-02
     0.008     0.843   0.107053E-02
     0.008     0.850   0.101279E-02
     0.008     0.858   0.955690E-03
     0.008     0.866   0.899222E-03
     0.008     0.874   0.843332E-03
     0.008     0.882   0.787997E-03
     0.008     0.890   0.733169E-03
     0.008     0.898   0.678824E-03
     0.008     0.906   0.624916E-03
     0.008     0.913   0.571420E-03
     0.008     0.921   0.518292E-03
     0.008     0.929   0.465506E-03
     0.008     0.937   0.413020E-03
     0.008     0.945   0.360806E-03
     0.008     0.953   0.308825E-03
     0.008     0.961   0.257048E-03
     0.008     0.969   0.205436E-03
     0.008     0.976   0.153961E-03
     0.008     0.984   0.102584E-03
     0.008     0.992   0.512756E-04
     0.008     1.000    0.00000    
     0.016     0.000   0.494537E-01
     0.016     0.008   0.482374E-01
     0.016     0.016   0.470507E-01
     0.016     0.024   0.458927E-01
     0.016     0.031   0.447628E-01
     0.016     0.039   0.436604E-01
     0.016     0.047   0.425846E-01
     0.016     0.055   0.415350E-01
     0.016     0.063   0.405108E-01
     0.016     0.071   0.395114E-01
     0.016     0.079   0.385362E-01
     0.016     0.087   0.375847E-01
     0.016     0.094   0.366562E-01
     0.016     0.102   0.357501E-01
     0.016     0.110   0.348660E-01
     0.016     0.118   0.340033E-01
     0.016     0.126   0.331615E-01
     0.016     0.134   0.323400E-01
     0.016     0.142   0.315384E-01
     0.016     0.150   0.307562E-01
     0.016     0.157   0.299928E-01
     0.016     0.165   0.292479E-01
     0.016     0.173   0.285209E-01
     0.016     0.181   0.278115E-01
     0.016     0.189   0.271192E-01
     0.016     0.197   0.264437E-01
     0.016     0.205   0.257843E-01
     0.016     0.213   0.251409E-01
     0.016     0.220   0.245129E-01
     0.016     0.228   0.239001E-01
     0.016     0.236   0.233020E-01
     0.016     0.244   0.227182E-01
     0.016     0.252   0.221485E-01
     0.016     0.260   0.215925E-01
     0.016     0.268   0.210498E-01
     0.016     0.276   0.205201E-01
     0.016     0.283   0.200030E-01
     0.016     0.291   0.194984E-01
     0.016     0.299   0.190058E-01
     0.016     0.307   0.185250E-01
     0.016     0.315   0.180557E-01
     0.016     0.323   0.175975E-01
     0.016     0.331   0.171503E-01
     0.016     0.339   0.167137E-01
     0.016     0.346   0.162875E-01
     0.016     0.354   0.158714E-01
     0.016     0.362   0.154652E-01
     0.016     0.370   0.150686E-01
     0.016     0.378   0.146813E-01
     0.016     0.386   0.143032E-01
     0.016     0.394   0.139340E-01
     0.016     0.402   0.135735E-01
     0.016     0.409   0.132215E-01
     0.016     0.417   0.128777E-01
     0.016     0.425   0.125419E-01
     0.016     0.433   0.122141E-01
     0.016     0.441   0.118938E-01
     0.016     0.449   0.115810E-01
     0.016     0.457   0.112754E-01
     0.016     0.465   0.109769E-01
     0.016     0.472   0.106853E-01
     0.016     0.480   0.104004E-01
     0.016     0.488   0.101221E-01
     0.016     0.496   0.985008E-02
     0.016     0.504   0.958426E-02
     0.016     0.512   0.932451E-02
     0.016     0.520   0.907059E-02
     0.016     0.528   0.882244E-02
     0.016     0.535   0.857981E-02
     0.016     0.543   0.834264E-02
     0.016     0.551   0.811071E-02
     0.016     0.559   0.788394E-02
     0.016     0.567   0.766213E-02
     0.016     0.575   0.744521E-02
     0.016     0.583   0.723297E-02
     0.016     0.591   0.702536E-02
     0.016     0.598   0.682218E-02
     0.016     0.606   0.662336E-02
     0.016     0.614   0.642873E-02
     0.016     0.622   0.623822E-02
     0.016     0.630   0.605165E-02
     0.016     0.638   0.586898E-02
     0.016     0.646   0.569002E-02
     0.016     0.654   0.551472E-02
     0.016     0.661   0.534292E-02
     0.016     0.669   0.517456E-02
     0.016     0.677   0.500949E-02
     0.016     0.685   0.484766E-02
     0.016     0.693   0.468890E-02
     0.016     0.701   0.453318E-02
     0.016     0.709   0.438035E-02
     0.016     0.717   0.423035E-02
     0.016     0.724   0.408305E-02
     0.016     0.732   0.393841E-02
     0.016     0.740   0.379627E-02
     0.016     0.748   0.365661E-02
     0.016     0.756   0.351928E-02
     0.016     0.764   0.338425E-02
     0.016     0.772   0.325137E-02
     0.016     0.780   0.312062E-02
     0.016     0.787   0.299187E-02
     0.016     0.795   0.286507E-02
     0.016     0.803   0.274011E-02
     0.016     0.811   0.261694E-02
     0.016     0.819   0.249545E-02
     0.016     0.827   0.237560E-02
     0.016     0.835   0.225727E-02
     0.016     0.843   0.214042E-02
     0.016     0.850   0.202494E-02
     0.016     0.858   0.191080E-02
     0.016     0.866   0.179789E-02
     0.016     0.874   0.168615E-02
     0.016     0.882   0.157551E-02
     0.016     0.890   0.146590E-02
     0.016     0.898   0.135723E-02
     0.016     0.906   0.124946E-02
     0.016     0.913   0.114249E-02
     0.016     0.921   0.103627E-02
     0.016     0.929   0.930723E-03
     0.016     0.937   0.825790E-03
     0.016     0.945   0.721389E-03
     0.016     0.953   0.617464E-03
     0.016     0.961   0.513936E-03
     0.016     0.969   0.410749E-03
     0.016     0.976   0.307826E-03
     0.016     0.984   0.205107E-03
     0.016     0.992   0.102519E-03
     0.016     1.000    0.00000    
     0.024     0.000   0.741428E-01
     0.024     0.008   0.723193E-01
     0.024     0.016   0.705400E-01
     0.024     0.024   0.688039E-01
     0.024     0.031   0.671100E-01
     0.024     0.039   0.654571E-01
     0.024     0.047   0.638444E-01
     0.024     0.055   0.622707E-01
     0.024     0.063   0.607352E-01
     0.024     0.071   0.592369E-01
     0.024     0.079   0.577749E-01
     0.024     0.087   0.563483E-01
     0.024     0.094   0.549562E-01
     0.024     0.102   0.535979E-01
     0.024     0.110   0.522724E-01
     0.024     0.118   0.509790E-01
     0.024     0.126   0.497169E-01
     0.024     0.134   0.484853E-01
     0.024     0.142   0.472835E-01
     0.024     0.150   0.461107E-01
     0.024     0.157   0.449663E-01
     0.024     0.165   0.438494E-01
     0.024     0.173   0.427596E-01
     0.024     0.181   0.416960E-01
     0.024     0.189   0.406581E-01
     0.024     0.197   0.396452E-01
     0.024     0.205   0.386568E-01
     0.024     0.213   0.376921E-01
     0.024     0.220   0.367507E-01
     0.024     0.228   0.358318E-01
     0.024     0.236   0.349351E-01
     0.024     0.244   0.340600E-01
     0.024     0.252   0.332058E-01
     0.024     0.260   0.323722E-01
     0.024     0.268   0.315586E-01
     0.024     0.276   0.307644E-01
     0.024     0.283   0.299893E-01
     0.024     0.291   0.292327E-01
     0.024     0.299   0.284942E-01
     0.024     0.307   0.277733E-01
     0.024     0.315   0.270697E-01
     0.024     0.323   0.263828E-01
     0.024     0.331   0.257124E-01
     0.024     0.339   0.250578E-01
     0.024     0.346   0.244188E-01
     0.024     0.354   0.237949E-01
     0.024     0.362   0.231859E-01
     0.024     0.370   0.225913E-01
     0.024     0.378   0.220107E-01
     0.024     0.386   0.214438E-01
     0.024     0.394   0.208904E-01
     0.024     0.402   0.203499E-01
     0.024     0.409   0.198221E-01
     0.024     0.417   0.193067E-01
     0.024     0.425   0.188034E-01
     0.024     0.433   0.183117E-01
     0.024     0.441   0.178316E-01
     0.024     0.449   0.173626E-01
     0.024     0.457   0.169045E-01
     0.024     0.465   0.164570E-01
     0.024     0.472   0.160198E-01
     0.024     0.480   0.155927E-01
     0.024     0.488   0.151754E-01
     0.024     0.496   0.147676E-01
     0.024     0.504   0.143691E-01
     0.024     0.512   0.139796E-01
     0.024     0.520   0.135990E-01
     0.024     0.528   0.132269E-01
     0.024     0.535   0.128632E-01
     0.024     0.543   0.125076E-01
     0.024     0.551   0.121599E-01
     0.024     0.559   0.118199E-01
     0.024     0.567   0.114874E-01
     0.024     0.575   0.111621E-01
     0.024     0.583   0.108440E-01
     0.024     0.591   0.105326E-01
     0.024     0.598   0.102281E-01
     0.024     0.606   0.992995E-02
     0.024     0.614   0.963820E-02
     0.024     0.622   0.935253E-02
     0.024     0.630   0.907288E-02
     0.024     0.638   0.879895E-02
     0.024     0.646   0.853070E-02
     0.024     0.654   0.826784E-02
     0.024     0.661   0.801031E-02
     0.024     0.669   0.775786E-02
     0.024     0.677   0.751042E-02
     0.024     0.685   0.726775E-02
     0.024     0.693   0.702979E-02
     0.024     0.701   0.679628E-02
     0.024     0.709   0.656719E-02
     0.024     0.717   0.634227E-02
     0.024     0.724   0.612148E-02
     0.024     0.732   0.590458E-02
     0.024     0.740   0.569153E-02
     0.024     0.748   0.548210E-02
     0.024     0.756   0.527625E-02
     0.024     0.764   0.507376E-02
     0.024     0.772   0.487459E-02
     0.024     0.780   0.467853E-02
     0.024     0.787   0.448553E-02
     0.024     0.795   0.429540E-02
     0.024     0.803   0.410809E-02
     0.024     0.811   0.392340E-02
     0.024     0.819   0.374128E-02
     0.024     0.827   0.356157E-02
     0.024     0.835   0.338419E-02
     0.024     0.843   0.320898E-02
     0.024     0.850   0.303588E-02
     0.024     0.858   0.286473E-02
     0.024     0.866   0.269547E-02
     0.024     0.874   0.252793E-02
     0.024     0.882   0.236206E-02
     0.024     0.890   0.219771E-02
     0.024     0.898   0.203481E-02
     0.024     0.906   0.187322E-02
     0.024     0.913   0.171286E-02
     0.024     0.921   0.155361E-02
     0.024     0.929   0.139538E-02
     0.024     0.937   0.123805E-02
     0.024     0.945   0.108154E-02
     0.024     0.953   0.925719E-03
     0.024     0.961   0.770515E-03
     0.024     0.969   0.615807E-03
     0.024     0.976   0.461506E-03
     0.024     0.984   0.307502E-03
     0.024     0.992   0.153701E-03
     0.024     1.000    0.00000    
     0.031     0.000   0.987864E-01
     0.031     0.008   0.963568E-01
     0.031     0.016   0.939862E-01
     0.031     0.024   0.916731E-01
     0.031     0.031   0.894161E-01
     0.031     0.039   0.872139E-01
     0.031     0.047   0.850650E-01
     0.031     0.055   0.829683E-01
     0.031     0.063   0.809224E-01
     0.031     0.071   0.789261E-01
     0.031     0.079   0.769781E-01
     0.031     0.087   0.750774E-01
     0.031     0.094   0.732226E-01
     0.031     0.102   0.714128E-01
     0.031     0.110   0.696468E-01
     0.031     0.118   0.679235E-01
     0.031     0.126   0.662419E-01
     0.031     0.134   0.646009E-01
     0.031     0.142   0.629996E-01
     0.031     0.150   0.614371E-01
     0.031     0.157   0.599122E-01
     0.031     0.165   0.584242E-01
     0.031     0.173   0.569721E-01
     0.031     0.181   0.555550E-01
     0.031     0.189   0.541721E-01
     0.031     0.197   0.528226E-01
     0.031     0.205   0.515055E-01
     0.031     0.213   0.502203E-01
     0.031     0.220   0.489659E-01
     0.031     0.228   0.477417E-01
     0.031     0.236   0.465469E-01
     0.031     0.244   0.453809E-01
     0.031     0.252   0.442428E-01
     0.031     0.260   0.431321E-01
     0.031     0.268   0.420480E-01
     0.031     0.276   0.409899E-01
     0.031     0.283   0.399571E-01
     0.031     0.291   0.389491E-01
     0.031     0.299   0.379651E-01
     0.031     0.307   0.370047E-01
     0.031     0.315   0.360672E-01
     0.031     0.323   0.351520E-01
     0.031     0.331   0.342586E-01
     0.031     0.339   0.333865E-01
     0.031     0.346   0.325351E-01
     0.031     0.354   0.317040E-01
     0.031     0.362   0.308925E-01
     0.031     0.370   0.301002E-01
     0.031     0.378   0.293267E-01
     0.031     0.386   0.285714E-01
     0.031     0.394   0.278339E-01
     0.031     0.402   0.271138E-01
     0.031     0.409   0.264106E-01
     0.031     0.417   0.257239E-01
     0.031     0.425   0.250532E-01
     0.031     0.433   0.243982E-01
     0.031     0.441   0.237585E-01
     0.031     0.449   0.231337E-01
     0.031     0.457   0.225232E-01
     0.031     0.465   0.219270E-01
     0.031     0.472   0.213445E-01
     0.031     0.480   0.207754E-01
     0.031     0.488   0.202194E-01
     0.031     0.496   0.196761E-01
     0.031     0.504   0.191451E-01
     0.031     0.512   0.186262E-01
     0.031     0.520   0.181190E-01
     0.031     0.528   0.176233E-01
     0.031     0.535   0.171386E-01
     0.031     0.543   0.166649E-01
     0.031     0.551   0.162016E-01
     0.031     0.559   0.157486E-01
     0.031     0.567   0.153055E-01
     0.031     0.575   0.148722E-01
     0.031     0.583   0.144482E-01
     0.031     0.591   0.140335E-01
     0.031     0.598   0.136277E-01
     0.031     0.606   0.132305E-01
     0.031     0.614   0.128417E-01
     0.031     0.622   0.124612E-01
     0.031     0.630   0.120885E-01
     0.031     0.638   0.117236E-01
     0.031     0.646   0.113661E-01
     0.031     0.654   0.110159E-01
     0.031     0.661   0.106728E-01
     0.031     0.669   0.103365E-01
     0.031     0.677   0.100067E-01
     0.031     0.685   0.968345E-02
     0.031     0.693   0.936632E-02
     0.031     0.701   0.905527E-02
     0.031     0.709   0.874997E-02
     0.031     0.717   0.845036E-02
     0.031     0.724   0.815612E-02
     0.031     0.732   0.786718E-02
     0.031     0.740   0.758326E-02
     0.031     0.748   0.730427E-02
     0.031     0.756   0.702995E-02
     0.031     0.764   0.676021E-02
     0.031     0.772   0.649479E-02
     0.031     0.780   0.623361E-02
     0.031     0.787   0.597642E-02
     0.031     0.795   0.572314E-02
     0.031     0.803   0.547351E-02
     0.031     0.811   0.522748E-02
     0.031     0.819   0.498480E-02
     0.031     0.827   0.474538E-02
     0.031     0.835   0.450901E-02
     0.031     0.843   0.427560E-02
     0.031     0.850   0.404493E-02
     0.031     0.858   0.381693E-02
     0.031     0.866   0.359137E-02
     0.031     0.874   0.336818E-02
     0.031     0.882   0.314716E-02
     0.031     0.890   0.292820E-02
     0.031     0.898   0.271113E-02
     0.031     0.906   0.249585E-02
     0.031     0.913   0.228218E-02
     0.031     0.921   0.207001E-02
     0.031     0.929   0.185917E-02
     0.031     0.937   0.164956E-02
     0.031     0.945   0.144101E-02
     0.031     0.953   0.123342E-02
     0.031     0.961   0.102662E-02
     0.031     0.969   0.820493E-03
     0.031     0.976   0.614899E-03
     0.031     0.984   0.409712E-03
     0.031     0.992   0.204788E-03
     0.031     1.000    0.00000    
     0.039     0.000   0.123370    
     0.039     0.008   0.120335    
     0.039     0.016   0.117375    
     0.039     0.024   0.114486    
     0.039     0.031   0.111668    
     0.039     0.039   0.108917    
     0.039     0.047   0.106234    
     0.039     0.055   0.103615    
     0.039     0.063   0.101060    
     0.039     0.071   0.985670E-01
     0.039     0.079   0.961343E-01
     0.039     0.087   0.937605E-01
     0.039     0.094   0.914443E-01
     0.039     0.102   0.891840E-01
     0.039     0.110   0.869785E-01
     0.039     0.118   0.848264E-01
     0.039     0.126   0.827263E-01
     0.039     0.134   0.806770E-01
     0.039     0.142   0.786772E-01
     0.039     0.150   0.767258E-01
     0.039     0.157   0.748215E-01
     0.039     0.165   0.729632E-01
     0.039     0.173   0.711497E-01
     0.039     0.181   0.693800E-01
     0.039     0.189   0.676530E-01
     0.039     0.197   0.659676E-01
     0.039     0.205   0.643228E-01
     0.039     0.213   0.627176E-01
     0.039     0.220   0.611512E-01
     0.039     0.228   0.596223E-01
     0.039     0.236   0.581302E-01
     0.039     0.244   0.566740E-01
     0.039     0.252   0.552528E-01
     0.039     0.260   0.538656E-01
     0.039     0.268   0.525118E-01
     0.039     0.276   0.511903E-01
     0.039     0.283   0.499006E-01
     0.039     0.291   0.486416E-01
     0.039     0.299   0.474129E-01
     0.039     0.307   0.462134E-01
     0.039     0.315   0.450426E-01
     0.039     0.323   0.438996E-01
     0.039     0.331   0.427840E-01
     0.039     0.339   0.416948E-01
     0.039     0.346   0.406316E-01
     0.039     0.354   0.395935E-01
     0.039     0.362   0.385802E-01
     0.039     0.370   0.375907E-01
     0.039     0.378   0.366247E-01
     0.039     0.386   0.356814E-01
     0.039     0.394   0.347605E-01
     0.039     0.402   0.338611E-01
     0.039     0.409   0.329830E-01
     0.039     0.417   0.321253E-01
     0.039     0.425   0.312878E-01
     0.039     0.433   0.304698E-01
     0.039     0.441   0.296709E-01
     0.039     0.449   0.288905E-01
     0.039     0.457   0.281283E-01
     0.039     0.465   0.273836E-01
     0.039     0.472   0.266562E-01
     0.039     0.480   0.259454E-01
     0.039     0.488   0.252510E-01
     0.039     0.496   0.245724E-01
     0.039     0.504   0.239094E-01
     0.039     0.512   0.232613E-01
     0.039     0.520   0.226280E-01
     0.039     0.528   0.220088E-01
     0.039     0.535   0.214037E-01
     0.039     0.543   0.208119E-01
     0.039     0.551   0.202334E-01
     0.039     0.559   0.196676E-01
     0.039     0.567   0.191144E-01
     0.039     0.575   0.185731E-01
     0.039     0.583   0.180438E-01
     0.039     0.591   0.175258E-01
     0.039     0.598   0.170190E-01
     0.039     0.606   0.165229E-01
     0.039     0.614   0.160375E-01
     0.039     0.622   0.155621E-01
     0.039     0.630   0.150968E-01
     0.039     0.638   0.146410E-01
     0.039     0.646   0.141946E-01
     0.039     0.654   0.137572E-01
     0.039     0.661   0.133287E-01
     0.039     0.669   0.129087E-01
     0.039     0.677   0.124970E-01
     0.039     0.685   0.120932E-01
     0.039     0.693   0.116972E-01
     0.039     0.701   0.113087E-01
     0.039     0.709   0.109275E-01
     0.039     0.717   0.105532E-01
     0.039     0.724   0.101858E-01
     0.039     0.732   0.982491E-02
     0.039     0.740   0.947040E-02
     0.039     0.748   0.912192E-02
     0.039     0.756   0.877940E-02
     0.039     0.764   0.844247E-02
     0.039     0.772   0.811106E-02
     0.039     0.780   0.778483E-02
     0.039     0.787   0.746369E-02
     0.039     0.795   0.714732E-02
     0.039     0.803   0.683564E-02
     0.039     0.811   0.652833E-02
     0.039     0.819   0.622530E-02
     0.039     0.827   0.592626E-02
     0.039     0.835   0.563111E-02
     0.039     0.843   0.533957E-02
     0.039     0.850   0.505155E-02
     0.039     0.858   0.476676E-02
     0.039     0.866   0.448511E-02
     0.039     0.874   0.420634E-02
     0.039     0.882   0.393035E-02
     0.039     0.890   0.365688E-02
     0.039     0.898   0.338582E-02
     0.039     0.906   0.311694E-02
     0.039     0.913   0.285011E-02
     0.039     0.921   0.258512E-02
     0.039     0.929   0.232184E-02
     0.039     0.937   0.206005E-02
     0.039     0.945   0.179962E-02
     0.039     0.953   0.154035E-02
     0.039     0.961   0.128210E-02
     0.039     0.969   0.102467E-02
     0.039     0.976   0.767921E-03
     0.039     0.984   0.511667E-03
     0.039     0.992   0.255751E-03
     0.039     1.000    0.00000    
     0.047     0.000   0.147877    
     0.047     0.008   0.144240    
     0.047     0.016   0.140692    
     0.047     0.024   0.137229    
     0.047     0.031   0.133851    
     0.047     0.039   0.130554    
     0.047     0.047   0.127337    
     0.047     0.055   0.124199    
     0.047     0.063   0.121136    
     0.047     0.071   0.118148    
     0.047     0.079   0.115232    
     0.047     0.087   0.112386    
     0.047     0.094   0.109610    
     0.047     0.102   0.106901    
     0.047     0.110   0.104257    
     0.047     0.118   0.101677    
     0.047     0.126   0.991601E-01
     0.047     0.134   0.967037E-01
     0.047     0.142   0.943067E-01
     0.047     0.150   0.919676E-01
     0.047     0.157   0.896850E-01
     0.047     0.165   0.874575E-01
     0.047     0.173   0.852838E-01
     0.047     0.181   0.831626E-01
     0.047     0.189   0.810924E-01
     0.047     0.197   0.790723E-01
     0.047     0.205   0.771007E-01
     0.047     0.213   0.751767E-01
     0.047     0.220   0.732990E-01
     0.047     0.228   0.714665E-01
     0.047     0.236   0.696779E-01
     0.047     0.244   0.679325E-01
     0.047     0.252   0.662289E-01
     0.047     0.260   0.645662E-01
     0.047     0.268   0.629434E-01
     0.047     0.276   0.613595E-01
     0.047     0.283   0.598134E-01
     0.047     0.291   0.583045E-01
     0.047     0.299   0.568315E-01
     0.047     0.307   0.553939E-01
     0.047     0.315   0.539904E-01
     0.047     0.323   0.526205E-01
     0.047     0.331   0.512831E-01
     0.047     0.339   0.499777E-01
     0.047     0.346   0.487031E-01
     0.047     0.354   0.474590E-01
     0.047     0.362   0.462442E-01
     0.047     0.370   0.450582E-01
     0.047     0.378   0.439003E-01
     0.047     0.386   0.427697E-01
     0.047     0.394   0.416657E-01
     0.047     0.402   0.405878E-01
     0.047     0.409   0.395351E-01
     0.047     0.417   0.385071E-01
     0.047     0.425   0.375031E-01
     0.047     0.433   0.365227E-01
     0.047     0.441   0.355650E-01
     0.047     0.449   0.346297E-01
     0.047     0.457   0.337160E-01
     0.047     0.465   0.328235E-01
     0.047     0.472   0.319514E-01
     0.047     0.480   0.310996E-01
     0.047     0.488   0.302672E-01