Title="Temperature Data"
Variables="X","Y","T"
 
Zone I=    64, J=    64, F=POINT
     0.000     0.000    0.00000    
     0.000     0.016    0.00000    
     0.000     0.032    0.00000    
     0.000     0.048    0.00000    
     0.000     0.063    0.00000    
     0.000     0.079    0.00000    
     0.000     0.095    0.00000    
     0.000     0.111    0.00000    
     0.000     0.127    0.00000    
     0.000     0.143    0.00000    
     0.000     0.159    0.00000    
     0.000     0.175    0.00000    
     0.000     0.190    0.00000    
     0.000     0.206    0.00000    
     0.000     0.222    0.00000    
     0.000     0.238    0.00000    
     0.000     0.254    0.00000    
     0.000     0.270    0.00000    
     0.000     0.286    0.00000    
     0.000     0.302    0.00000    
     0.000     0.317    0.00000    
     0.000     0.333    0.00000    
     0.000     0.349    0.00000    
     0.000     0.365    0.00000    
     0.000     0.381    0.00000    
     0.000     0.397    0.00000    
     0.000     0.413    0.00000    
     0.000     0.429    0.00000    
     0.000     0.444    0.00000    
     0.000     0.460    0.00000    
     0.000     0.476    0.00000    
     0.000     0.492    0.00000    
     0.000     0.508    0.00000    
     0.000     0.524    0.00000    
     0.000     0.540    0.00000    
     0.000     0.556    0.00000    
     0.000     0.571    0.00000    
     0.000     0.587    0.00000    
     0.000     0.603    0.00000    
     0.000     0.619    0.00000    
     0.000     0.635    0.00000    
     0.000     0.651    0.00000    
     0.000     0.667    0.00000    
     0.000     0.683    0.00000    
     0.000     0.698    0.00000    
     0.000     0.714    0.00000    
     0.000     0.730    0.00000    
     0.000     0.746    0.00000    
     0.000     0.762    0.00000    
     0.000     0.778    0.00000    
     0.000     0.794    0.00000    
     0.000     0.810    0.00000    
     0.000     0.825    0.00000    
     0.000     0.841    0.00000    
     0.000     0.857    0.00000    
     0.000     0.873    0.00000    
     0.000     0.889    0.00000    
     0.000     0.905    0.00000    
     0.000     0.921    0.00000    
     0.000     0.937    0.00000    
     0.000     0.952    0.00000    
     0.000     0.968    0.00000    
     0.000     0.984    0.00000    
     0.000     1.000    0.00000    
     0.016     0.000   0.498459E-01
     0.016     0.016   0.384856E-01
     0.016     0.032   0.280955E-01
     0.016     0.048   0.193203E-01
     0.016     0.063   0.124791E-01
     0.016     0.079   0.755512E-02
     0.016     0.095   0.428121E-02
     0.016     0.111   0.226870E-02
     0.016     0.127   0.112378E-02
     0.016     0.143   0.520269E-03
     0.016     0.159   0.225160E-03
     0.016     0.175   0.911211E-04
     0.016     0.190   0.345002E-04
     0.016     0.206   0.122278E-04
     0.016     0.222   0.405948E-05
     0.016     0.238   0.126321E-05
     0.016     0.254   0.368677E-06
     0.016     0.270   0.100987E-06
     0.016     0.286   0.259776E-07
     0.016     0.302   0.627913E-08
     0.016     0.317   0.142691E-08
     0.016     0.333   0.304998E-09
     0.016     0.349   0.613457E-10
     0.016     0.365   0.116148E-10
     0.016     0.381   0.207066E-11
     0.016     0.397   0.347669E-12
     0.016     0.413   0.549859E-13
     0.016     0.429   0.819212E-14
     0.016     0.444   0.114974E-14
     0.016     0.460   0.151992E-15
     0.016     0.476   0.189230E-16
     0.016     0.492   0.221817E-17
     0.016     0.508   0.244727E-18
     0.016     0.524   0.254013E-19
     0.016     0.540   0.247901E-20
     0.016     0.556   0.227330E-21
     0.016     0.571   0.195729E-22
     0.016     0.587   0.158078E-23
     0.016     0.603   0.119632E-24
     0.016     0.619   0.847329E-26
     0.016     0.635   0.560900E-27
     0.016     0.651   0.346464E-28
     0.016     0.667   0.199336E-29
     0.016     0.683   0.106604E-30
     0.016     0.698   0.528698E-32
     0.016     0.714   0.242507E-33
     0.016     0.730   0.102564E-34
     0.016     0.746   0.398550E-36
     0.016     0.762   0.141716E-37
     0.016     0.778   0.458925E-39
     0.016     0.794   0.134592E-40
     0.016     0.810   0.355122E-42
     0.016     0.825   0.836278E-44
     0.016     0.841   0.174065E-45
     0.016     0.857   0.316372E-47
     0.016     0.873   0.494425E-49
     0.016     0.889   0.651009E-51
     0.016     0.905   0.702335E-53
     0.016     0.921   0.596157E-55
     0.016     0.937   0.373354E-57
     0.016     0.952   0.153385E-59
     0.016     0.968   0.310110E-62
     0.016     0.984    0.00000    
     0.016     1.000    0.00000    
     0.032     0.000   0.995678E-01
     0.032     0.016   0.768756E-01
     0.032     0.032   0.561212E-01
     0.032     0.048   0.385926E-01
     0.032     0.063   0.249272E-01
     0.032     0.079   0.150915E-01
     0.032     0.095   0.855178E-02
     0.032     0.111   0.453176E-02
     0.032     0.127   0.224476E-02
     0.032     0.143   0.103925E-02
     0.032     0.159   0.449760E-03
     0.032     0.175   0.182016E-03
     0.032     0.190   0.689146E-04
     0.032     0.206   0.244251E-04
     0.032     0.222   0.810887E-05
     0.032     0.238   0.252327E-05
     0.032     0.254   0.736438E-06
     0.032     0.270   0.201723E-06
     0.032     0.286   0.518906E-07
     0.032     0.302   0.125426E-07
     0.032     0.317   0.285027E-08
     0.032     0.333   0.609238E-09
     0.032     0.349   0.122539E-09
     0.032     0.365   0.232008E-10
     0.032     0.381   0.413616E-11
     0.032     0.397   0.694474E-12
     0.032     0.413   0.109835E-12
     0.032     0.429   0.163639E-13
     0.032     0.444   0.229662E-14
     0.032     0.460   0.303606E-15
     0.032     0.476   0.377990E-16
     0.032     0.492   0.443083E-17
     0.032     0.508   0.488846E-18
     0.032     0.524   0.507395E-19
     0.032     0.540   0.495185E-20
     0.032     0.556   0.454096E-21
     0.032     0.571   0.390971E-22
     0.032     0.587   0.315762E-23
     0.032     0.603   0.238966E-24
     0.032     0.619   0.169255E-25
     0.032     0.635   0.112041E-26
     0.032     0.651   0.692066E-28
     0.032     0.667   0.398176E-29
     0.032     0.683   0.212943E-30
     0.032     0.698   0.105608E-31
     0.032     0.714   0.484411E-33
     0.032     0.730   0.204872E-34
     0.032     0.746   0.796108E-36
     0.032     0.762   0.283080E-37
     0.032     0.778   0.916708E-39
     0.032     0.794   0.268850E-40
     0.032     0.810   0.709362E-42
     0.032     0.825   0.167048E-43
     0.032     0.841   0.347698E-45
     0.032     0.857   0.631958E-47
     0.032     0.873   0.987621E-49
     0.032     0.889   0.130040E-50
     0.032     0.905   0.140292E-52
     0.032     0.921   0.119083E-54
     0.032     0.937   0.745781E-57
     0.032     0.952   0.306389E-59
     0.032     0.968   0.619450E-62
     0.032     0.984    0.00000    
     0.032     1.000    0.00000    
     0.048     0.000   0.149042    
     0.048     0.016   0.115074    
     0.048     0.032   0.840073E-01
     0.048     0.048   0.577689E-01
     0.048     0.063   0.373134E-01
     0.048     0.079   0.225903E-01
     0.048     0.095   0.128011E-01
     0.048     0.111   0.678355E-02
     0.048     0.127   0.336016E-02
     0.048     0.143   0.155564E-02
     0.048     0.159   0.673242E-03
     0.048     0.175   0.272458E-03
     0.048     0.190   0.103158E-03
     0.048     0.206   0.365618E-04
     0.048     0.222   0.121381E-04
     0.048     0.238   0.377707E-05
     0.048     0.254   0.110237E-05
     0.048     0.270   0.301957E-06
     0.048     0.286   0.776746E-07
     0.048     0.302   0.187750E-07
     0.048     0.317   0.426654E-08
     0.048     0.333   0.911963E-09
     0.048     0.349   0.183428E-09
     0.048     0.365   0.347290E-10
     0.048     0.381   0.619139E-11
     0.048     0.397   0.103955E-11
     0.048     0.413   0.164411E-12
     0.048     0.429   0.244949E-13
     0.048     0.444   0.343778E-14
     0.048     0.460   0.454466E-15
     0.048     0.476   0.565810E-16
     0.048     0.492   0.663247E-17
     0.048     0.508   0.731749E-18
     0.048     0.524   0.759515E-19
     0.048     0.540   0.741238E-20
     0.048     0.556   0.679732E-21
     0.048     0.571   0.585241E-22
     0.048     0.587   0.472662E-23
     0.048     0.603   0.357706E-24
     0.048     0.619   0.253357E-25
     0.048     0.635   0.167713E-26
     0.048     0.651   0.103595E-27
     0.048     0.667   0.596026E-29
     0.048     0.683   0.318753E-30
     0.048     0.698   0.158084E-31
     0.048     0.714   0.725111E-33
     0.048     0.730   0.306671E-34
     0.048     0.746   0.119169E-35
     0.048     0.762   0.423741E-37
     0.048     0.778   0.137221E-38
     0.048     0.794   0.402440E-40
     0.048     0.810   0.106184E-41
     0.048     0.825   0.250052E-43
     0.048     0.841   0.520466E-45
     0.048     0.857   0.945973E-47
     0.048     0.873   0.147836E-48
     0.048     0.889   0.194656E-50
     0.048     0.905   0.210002E-52
     0.048     0.921   0.178255E-54
     0.048     0.937   0.111635E-56
     0.048     0.952   0.458631E-59
     0.048     0.968   0.927249E-62
     0.048     0.984    0.00000    
     0.048     1.000    0.00000    
     0.063     0.000   0.198146    
     0.063     0.016   0.152987    
     0.063     0.032   0.111685    
     0.063     0.048   0.768016E-01
     0.063     0.063   0.496067E-01
     0.063     0.079   0.300329E-01
     0.063     0.095   0.170186E-01
     0.063     0.111   0.901848E-02
     0.063     0.127   0.446720E-02
     0.063     0.143   0.206816E-02
     0.063     0.159   0.895051E-03
     0.063     0.175   0.362222E-03
     0.063     0.190   0.137144E-03
     0.063     0.206   0.486075E-04
     0.063     0.222   0.161371E-04
     0.063     0.238   0.502147E-05
     0.063     0.254   0.146556E-05
     0.063     0.270   0.401441E-06
     0.063     0.286   0.103266E-06
     0.063     0.302   0.249606E-07
     0.063     0.317   0.567221E-08
     0.063     0.333   0.121242E-08
     0.063     0.349   0.243860E-09
     0.063     0.365   0.461710E-10
     0.063     0.381   0.823122E-11
     0.063     0.397   0.138205E-11
     0.063     0.413   0.218579E-12
     0.063     0.429   0.325651E-13
     0.063     0.444   0.457041E-14
     0.063     0.460   0.604196E-15
     0.063     0.476   0.752224E-16
     0.063     0.492   0.881762E-17
     0.063     0.508   0.972833E-18
     0.063     0.524   0.100975E-18
     0.063     0.540   0.985449E-20
     0.063     0.556   0.903678E-21
     0.063     0.571   0.778056E-22
     0.063     0.587   0.628386E-23
     0.063     0.603   0.475556E-24
     0.063     0.619   0.336828E-25
     0.063     0.635   0.222968E-26
     0.063     0.651   0.137725E-27
     0.063     0.667   0.792394E-29
     0.063     0.683   0.423770E-30
     0.063     0.698   0.210167E-31
     0.063     0.714   0.964008E-33
     0.063     0.730   0.407708E-34
     0.063     0.746   0.158430E-35
     0.063     0.762   0.563347E-37
     0.063     0.778   0.182431E-38
     0.063     0.794   0.535028E-40
     0.063     0.810   0.141167E-41
     0.063     0.825   0.332435E-43
     0.063     0.841   0.691940E-45
     0.063     0.857   0.125764E-46
     0.063     0.873   0.196543E-48
     0.063     0.889   0.258787E-50
     0.063     0.905   0.279190E-52
     0.063     0.921   0.236983E-54
     0.063     0.937   0.148415E-56
     0.063     0.952   0.609733E-59
     0.063     0.968   0.123274E-61
     0.063     0.984    0.00000    
     0.063     1.000    0.00000    
     0.079     0.000   0.246757    
     0.079     0.016   0.190520    
     0.079     0.032   0.139084    
     0.079     0.048   0.956434E-01
     0.079     0.063   0.617768E-01
     0.079     0.079   0.374009E-01
     0.079     0.095   0.211937E-01
     0.079     0.111   0.112310E-01
     0.079     0.127   0.556314E-02
     0.079     0.143   0.257555E-02
     0.079     0.159   0.111463E-02
     0.079     0.175   0.451087E-03
     0.079     0.190   0.170790E-03
     0.079     0.206   0.605325E-04
     0.079     0.222   0.200961E-04
     0.079     0.238   0.625339E-05
     0.079     0.254   0.182510E-05
     0.079     0.270   0.499926E-06
     0.079     0.286   0.128600E-06
     0.079     0.302   0.310842E-07
     0.079     0.317   0.706378E-08
     0.079     0.333   0.150986E-08
     0.079     0.349   0.303686E-09
     0.079     0.365   0.574981E-10
     0.079     0.381   0.102506E-10
     0.079     0.397   0.172110E-11
     0.079     0.413   0.272203E-12
     0.079     0.429   0.405543E-13
     0.079     0.444   0.569167E-14
     0.079     0.460   0.752423E-15
     0.079     0.476   0.936767E-16
     0.079     0.492   0.109808E-16
     0.079     0.508   0.121150E-17
     0.079     0.524   0.125747E-18
     0.079     0.540   0.122721E-19
     0.079     0.556   0.112538E-20
     0.079     0.571   0.968936E-22
     0.079     0.587   0.782549E-23
     0.079     0.603   0.592225E-24
     0.079     0.619   0.419462E-25
     0.079     0.635   0.277668E-26
     0.079     0.651   0.171514E-27
     0.079     0.667   0.986792E-29
     0.079     0.683   0.527733E-30
     0.079     0.698   0.261727E-31
     0.079     0.714   0.120051E-32
     0.079     0.730   0.507731E-34
     0.079     0.746   0.197298E-35
     0.079     0.762   0.701553E-37
     0.079     0.778   0.227186E-38
     0.079     0.794   0.666287E-40
     0.079     0.810   0.175800E-41
     0.079     0.825   0.413992E-43
     0.079     0.841   0.861693E-45
     0.079     0.857   0.156617E-46
     0.079     0.873   0.244760E-48
     0.079     0.889   0.322276E-50
     0.079     0.905   0.347684E-52
     0.079     0.921   0.295122E-54
     0.079     0.937   0.184826E-56
     0.079     0.952   0.759320E-59
     0.079     0.968   0.153517E-61
     0.079     0.984    0.00000    
     0.079     1.000    0.00000    
     0.095     0.000   0.294755    
     0.095     0.016   0.227578    
     0.095     0.032   0.166138    
     0.095     0.048   0.114247    
     0.095     0.063   0.737932E-01
     0.095     0.079   0.446759E-01
     0.095     0.095   0.253162E-01
     0.095     0.111   0.134156E-01
     0.095     0.127   0.664525E-02
     0.095     0.143   0.307653E-02
     0.095     0.159   0.133145E-02
     0.095     0.175   0.538829E-03
     0.095     0.190   0.204011E-03
     0.095     0.206   0.723069E-04
     0.095     0.222   0.240050E-04
     0.095     0.238   0.746976E-05
     0.095     0.254   0.218011E-05
     0.095     0.270   0.597169E-06
     0.095     0.286   0.153614E-06
     0.095     0.302   0.371305E-07
     0.095     0.317   0.843778E-08
     0.095     0.333   0.180355E-08
     0.095     0.349   0.362758E-09
     0.095     0.365   0.686823E-10
     0.095     0.381   0.122445E-10
     0.095     0.397   0.205588E-11
     0.095     0.413   0.325150E-12
     0.095     0.429   0.484427E-13
     0.095     0.444   0.679878E-14
     0.095     0.460   0.898780E-15
     0.095     0.476   0.111898E-15
     0.095     0.492   0.131168E-16
     0.095     0.508   0.144715E-17
     0.095     0.524   0.150206E-18
     0.095     0.540   0.146592E-19
     0.095     0.556   0.134428E-20
     0.095     0.571   0.115741E-21
     0.095     0.587   0.934765E-23
     0.095     0.603   0.707421E-24
     0.095     0.619   0.501054E-25
     0.095     0.635   0.331679E-26
     0.095     0.651   0.204875E-27
     0.095     0.667   0.117874E-28
     0.095     0.683   0.630385E-30
     0.095     0.698   0.312636E-31
     0.095     0.714   0.143402E-32
     0.095     0.730   0.606492E-34
     0.095     0.746   0.235676E-35
     0.095     0.762   0.838015E-37
     0.095     0.778   0.271377E-38
     0.095     0.794   0.795889E-40
     0.095     0.810   0.209996E-41
     0.095     0.825   0.494519E-43
     0.095     0.841   0.102930E-44
     0.095     0.857   0.187081E-46
     0.095     0.873   0.292370E-48
     0.095     0.889   0.384963E-50
     0.095     0.905   0.415314E-52
     0.095     0.921   0.352527E-54
     0.095     0.937   0.220777E-56
     0.095     0.952   0.907018E-59
     0.095     0.968   0.183378E-61
     0.095     0.984    0.00000    
     0.095     1.000    0.00000    
     0.111     0.000   0.342020    
     0.111     0.016   0.264071    
     0.111     0.032   0.192779    
     0.111     0.048   0.132567    
     0.111     0.063   0.856262E-01
     0.111     0.079   0.518399E-01
     0.111     0.095   0.293758E-01
     0.111     0.111   0.155668E-01
     0.111     0.127   0.771084E-02
     0.111     0.143   0.356986E-02
     0.111     0.159   0.154495E-02
     0.111     0.175   0.625232E-03
     0.111     0.190   0.236725E-03
     0.111     0.206   0.839015E-04
     0.111     0.222   0.278543E-04
     0.111     0.238   0.866756E-05
     0.111     0.254   0.252970E-05
     0.111     0.270   0.692927E-06
     0.111     0.286   0.178247E-06
     0.111     0.302   0.430846E-07
     0.111     0.317   0.979080E-08
     0.111     0.333   0.209276E-08
     0.111     0.349   0.420927E-09
     0.111     0.365   0.796957E-10
     0.111     0.381   0.142079E-10
     0.111     0.397   0.238555E-11
     0.111     0.413   0.377289E-12
     0.111     0.429   0.562107E-13
     0.111     0.444   0.788898E-14
     0.111     0.460   0.104290E-14
     0.111     0.476   0.129841E-15
     0.111     0.492   0.152201E-16
     0.111     0.508   0.167921E-17
     0.111     0.524   0.174292E-18
     0.111     0.540   0.170098E-19
     0.111     0.556   0.155984E-20
     0.111     0.571   0.134300E-21
     0.111     0.587   0.108466E-22
     0.111     0.603   0.820858E-24
     0.111     0.619   0.581399E-25
     0.111     0.635   0.384865E-26
     0.111     0.651   0.237728E-27
     0.111     0.667   0.136775E-28
     0.111     0.683   0.731469E-30
     0.111     0.698   0.362769E-31
     0.111     0.714   0.166397E-32
     0.111     0.730   0.703745E-34
     0.111     0.746   0.273467E-35
     0.111     0.762   0.972394E-37
     0.111     0.778   0.314893E-38
     0.111     0.794   0.923513E-40
     0.111     0.810   0.243669E-41
     0.111     0.825   0.573817E-43
     0.111     0.841   0.119436E-44
     0.111     0.857   0.217081E-46
     0.111     0.873   0.339252E-48
     0.111     0.889   0.446693E-50
     0.111     0.905   0.481911E-52
     0.111     0.921   0.409056E-54
     0.111     0.937   0.256179E-56
     0.111     0.952   0.105246E-58
     0.111     0.968   0.212784E-61
     0.111     0.984    0.00000    
     0.111     1.000    0.00000    
     0.127     0.000   0.388435    
     0.127     0.016   0.299908    
     0.127     0.032   0.218940    
     0.127     0.048   0.150558    
     0.127     0.063   0.972463E-01
     0.127     0.079   0.588749E-01
     0.127     0.095   0.333623E-01
     0.127     0.111   0.176793E-01
     0.127     0.127   0.875726E-02
     0.127     0.143   0.405431E-02
     0.127     0.159   0.175461E-02
     0.127     0.175   0.710081E-03
     0.127     0.190   0.268850E-03
     0.127     0.206   0.952876E-04
     0.127     0.222   0.316344E-04
     0.127     0.238   0.984382E-05
     0.127     0.254   0.287300E-05
     0.127     0.270   0.786962E-06
     0.127     0.286   0.202436E-06
     0.127     0.302   0.489314E-07
     0.127     0.317   0.111195E-07
     0.127     0.333   0.237676E-08
     0.127     0.349   0.478050E-09
     0.127     0.365   0.905110E-10
     0.127     0.381   0.161360E-10
     0.127     0.397   0.270929E-11
     0.127     0.413   0.428490E-12
     0.127     0.429   0.638389E-13
     0.127     0.444   0.895957E-14
     0.127     0.460   0.118443E-14
     0.127     0.476   0.147462E-15
     0.127     0.492   0.172856E-16
     0.127     0.508   0.190709E-17
     0.127     0.524   0.197945E-18
     0.127     0.540   0.193182E-19
     0.127     0.556   0.177152E-20
     0.127     0.571   0.152526E-21
     0.127     0.587   0.123185E-22
     0.127     0.603   0.932255E-24
     0.127     0.619   0.660299E-25
     0.127     0.635   0.437094E-26
     0.127     0.651   0.269989E-27
     0.127     0.667   0.155337E-28
     0.127     0.683   0.830735E-30
     0.127     0.698   0.411999E-31
     0.127     0.714   0.188979E-32
     0.127     0.730   0.799249E-34
     0.127     0.746   0.310578E-35
     0.127     0.762   0.110436E-36
     0.127     0.778   0.357627E-38
     0.127     0.794   0.104884E-39
     0.127     0.810   0.276737E-41
     0.127     0.825   0.651688E-43
     0.127     0.841   0.135644E-44
     0.127     0.857   0.246540E-46
     0.127     0.873   0.385291E-48
     0.127     0.889   0.507312E-50
     0.127     0.905   0.547309E-52
     0.127     0.921   0.464568E-54
     0.127     0.937   0.290944E-56
     0.127     0.952   0.119529E-58
     0.127     0.968   0.241660E-61
     0.127     0.984    0.00000    
     0.127     1.000    0.00000    
     0.143     0.000   0.433884    
     0.143     0.016   0.334998    
     0.143     0.032   0.244558    
     0.143     0.048   0.168174    
     0.143     0.063   0.108625    
     0.143     0.079   0.657636E-01
     0.143     0.095   0.372658E-01
     0.143     0.111   0.197479E-01
     0.143     0.127   0.978191E-02
     0.143     0.143   0.452869E-02
     0.143     0.159   0.195991E-02
     0.143     0.175   0.793164E-03
     0.143     0.190   0.300307E-03
     0.143     0.206   0.106437E-03
     0.143     0.222   0.353358E-04
     0.143     0.238   0.109956E-04
     0.143     0.254   0.320915E-05
     0.143     0.270   0.879041E-06
     0.143     0.286   0.226122E-06
     0.143     0.302   0.546567E-07
     0.143     0.317   0.124205E-07
     0.143     0.333   0.265486E-08
     0.143     0.349   0.533984E-09
     0.143     0.365   0.101101E-09
     0.143     0.381   0.180240E-10
     0.143     0.397   0.302629E-11
     0.143     0.413   0.478625E-12
     0.143     0.429   0.713084E-13
     0.143     0.444   0.100079E-13
     0.143     0.460   0.132302E-14
     0.143     0.476   0.164716E-15
     0.143     0.492   0.193081E-16
     0.143     0.508   0.213023E-17
     0.143     0.524   0.221106E-18
     0.143     0.540   0.215785E-19
     0.143     0.556   0.197880E-20
     0.143     0.571   0.170372E-21
     0.143     0.587   0.137599E-22
     0.143     0.603   0.104133E-23
     0.143     0.619   0.737558E-25
     0.143     0.635   0.488236E-26
     0.143     0.651   0.301580E-27
     0.143     0.667   0.173512E-28
     0.143     0.683   0.927935E-30
     0.143     0.698   0.460205E-31
     0.143     0.714   0.211090E-32
     0.143     0.730   0.892765E-34
     0.143     0.746   0.346918E-35
     0.143     0.762   0.123357E-36
     0.143     0.778   0.399471E-38
     0.143     0.794   0.117156E-39
     0.143     0.810   0.309116E-41
     0.143     0.825   0.727939E-43
     0.143     0.841   0.151515E-44
     0.143     0.857   0.275387E-46
     0.143     0.873   0.430372E-48
     0.143     0.889   0.566671E-50
     0.143     0.905   0.611347E-52
     0.143     0.921   0.518925E-54
     0.143     0.937   0.324987E-56
     0.143     0.952   0.133514E-58
     0.143     0.968   0.269936E-61
     0.143     0.984    0.00000    
     0.143     1.000    0.00000    
     0.159     0.000   0.478254    
     0.159     0.016   0.369256    
     0.159     0.032   0.269567    
     0.159     0.048   0.185372    
     0.159     0.063   0.119733    
     0.159     0.079   0.724888E-01
     0.159     0.095   0.410767E-01
     0.159     0.111   0.217674E-01
     0.159     0.127   0.107822E-01
     0.159     0.143   0.499181E-02
     0.159     0.159   0.216033E-02
     0.159     0.175   0.874276E-03
     0.159     0.190   0.331017E-03
     0.159     0.206   0.117321E-03
     0.159     0.222   0.389493E-04
     0.159     0.238   0.121200E-04
     0.159     0.254   0.353733E-05
     0.159     0.270   0.968935E-06
     0.159     0.286   0.249246E-06
     0.159     0.302   0.602460E-07
     0.159     0.317   0.136907E-07
     0.159     0.333   0.292635E-08
     0.159     0.349   0.588591E-09
     0.159     0.365   0.111440E-09
     0.159     0.381   0.198672E-10
     0.159     0.397   0.333576E-11
     0.159     0.413   0.527571E-12
     0.159     0.429   0.786006E-13
     0.159     0.444   0.110313E-13
     0.159     0.460   0.145831E-14
     0.159     0.476   0.181560E-15
     0.159     0.492   0.212826E-16
     0.159     0.508   0.234807E-17
     0.159     0.524   0.243717E-18
     0.159     0.540   0.237852E-19
     0.159     0.556   0.218116E-20
     0.159     0.571   0.187795E-21
     0.159     0.587   0.151670E-22
     0.159     0.603   0.114782E-23
     0.159     0.619   0.812983E-25
     0.159     0.635   0.538164E-26
     0.159     0.651   0.332420E-27
     0.159     0.667   0.191256E-28
     0.159     0.683   0.102283E-29
     0.159     0.698   0.507267E-31
     0.159     0.714   0.232677E-32
     0.159     0.730   0.984062E-34
     0.159     0.746   0.382394E-35
     0.159     0.762   0.135972E-36
     0.159     0.778   0.440322E-38
     0.159     0.794   0.129137E-39
     0.159     0.810   0.340727E-41
     0.159     0.825   0.802380E-43
     0.159     0.841   0.167009E-44
     0.159     0.857   0.303548E-46
     0.159     0.873   0.474384E-48
     0.159     0.889   0.624620E-50
     0.159     0.905   0.673866E-52
     0.159     0.921   0.571992E-54
     0.159     0.937   0.358221E-56
     0.159     0.952   0.147168E-58
     0.159     0.968   0.297540E-61
     0.159     0.984    0.00000    
     0.159     1.000    0.00000    
     0.175     0.000   0.521435    
     0.175     0.016   0.402596    
     0.175     0.032   0.293906    
     0.175     0.048   0.202109    
     0.175     0.063   0.130544    
     0.175     0.079   0.790337E-01
     0.175     0.095   0.447855E-01
     0.175     0.111   0.237328E-01
     0.175     0.127   0.117558E-01
     0.175     0.143   0.544251E-02
     0.175     0.159   0.235539E-02
     0.175     0.175   0.953213E-03
     0.175     0.190   0.360905E-03
     0.175     0.206   0.127914E-03
     0.175     0.222   0.424660E-04
     0.175     0.238   0.132143E-04
     0.175     0.254   0.385671E-05
     0.175     0.270   0.105642E-05
     0.175     0.286   0.271750E-06
     0.175     0.302   0.656856E-07
     0.175     0.317   0.149268E-07
     0.175     0.333   0.319057E-08
     0.175     0.349   0.641734E-09
     0.175     0.365   0.121502E-09
     0.175     0.381   0.216610E-10
     0.175     0.397   0.363695E-11
     0.175     0.413   0.575205E-12
     0.175     0.429   0.856973E-13
     0.175     0.444   0.120273E-13
     0.175     0.460   0.158998E-14
     0.175     0.476   0.197953E-15
     0.175     0.492   0.232042E-16
     0.175     0.508   0.256008E-17
     0.175     0.524   0.265722E-18
     0.175     0.540   0.259328E-19
     0.175     0.556   0.237809E-20
     0.175     0.571   0.204751E-21
     0.175     0.587   0.165364E-22
     0.175     0.603   0.125146E-23
     0.175     0.619   0.886386E-25
     0.175     0.635   0.586755E-26
     0.175     0.651   0.362434E-27
     0.175     0.667   0.208524E-28
     0.175     0.683   0.111518E-29
     0.175     0.698   0.553068E-31
     0.175     0.714   0.253685E-32
     0.175     0.730   0.107291E-33
     0.175     0.746   0.416921E-35
     0.175     0.762   0.148249E-36
     0.175     0.778   0.480079E-38
     0.175     0.794   0.140796E-39
     0.175     0.810   0.371492E-41
     0.175     0.825   0.874826E-43
     0.175     0.841   0.182089E-44
     0.175     0.857   0.330956E-46
     0.175     0.873   0.517215E-48
     0.175     0.889   0.681017E-50
     0.175     0.905   0.734709E-52
     0.175     0.921   0.623637E-54
     0.175     0.937   0.390564E-56
     0.175     0.952   0.160456E-58
     0.175     0.968   0.324405E-61
     0.175     0.984    0.00000    
     0.175     1.000    0.00000    
     0.190     0.000   0.563320    
     0.190     0.016   0.434935    
     0.190     0.032   0.317514    
     0.190     0.048   0.218343    
     0.190     0.063   0.141030    
     0.190     0.079   0.853822E-01
     0.190     0.095   0.483830E-01
     0.190     0.111   0.256391E-01
     0.190     0.127   0.127000E-01
     0.190     0.143   0.587969E-02
     0.190     0.159   0.254459E-02
     0.190     0.175   0.102978E-02
     0.190     0.190   0.389895E-03
     0.190     0.206   0.138189E-03
     0.190     0.222   0.458771E-04
     0.190     0.238   0.142758E-04
     0.190     0.254   0.416651E-05
     0.190     0.270   0.114128E-05
     0.190     0.286   0.293579E-06
     0.190     0.302   0.709619E-07
     0.190     0.317   0.161258E-07
     0.190     0.333   0.344685E-08
     0.190     0.349   0.693283E-09
     0.190     0.365   0.131262E-09
     0.190     0.381   0.234010E-10
     0.190     0.397   0.392909E-11
     0.190     0.413   0.621409E-12
     0.190     0.429   0.925811E-13
     0.190     0.444   0.129934E-13
     0.190     0.460   0.171770E-14
     0.190     0.476   0.213854E-15
     0.190     0.492   0.250681E-16
     0.190     0.508   0.276572E-17
     0.190     0.524   0.287066E-18
     0.190     0.540   0.280158E-19
     0.190     0.556   0.256911E-20
     0.190     0.571   0.221198E-21
     0.190     0.587   0.178647E-22
     0.190     0.603   0.135198E-23
     0.190     0.619   0.957586E-25
     0.190     0.635   0.633886E-26
     0.190     0.651   0.391547E-27
     0.190     0.667   0.225274E-28
     0.190     0.683   0.120476E-29
     0.190     0.698   0.597494E-31
     0.190     0.714   0.274063E-32
     0.190     0.730   0.115909E-33
     0.190     0.746   0.450410E-35
     0.190     0.762   0.160157E-36
     0.190     0.778   0.518641E-38
     0.190     0.794   0.152106E-39
     0.190     0.810   0.401332E-41
     0.190     0.825   0.945098E-43
     0.190     0.841   0.196715E-44
     0.190     0.857   0.357540E-46
     0.190     0.873   0.558761E-48
     0.190     0.889   0.735720E-50
     0.190     0.905   0.793725E-52
     0.190     0.921   0.673731E-54
     0.190     0.937   0.421937E-56
     0.190     0.952   0.173344E-58
     0.190     0.968   0.350463E-61
     0.190     0.984    0.00000    