Title="Temperature Data"
Variables="X","Y","T"
 
Zone I=     8, J=     8, F=POINT
     0.000     0.000    0.00000    
     0.000     0.143    0.00000    
     0.000     0.286    0.00000    
     0.000     0.429    0.00000    
     0.000     0.571    0.00000    
     0.000     0.714    0.00000    
     0.000     0.857    0.00000    
     0.000     1.000    0.00000    
     0.143     0.000   0.433884    
     0.143     0.143    0.00000    
     0.143     0.286    0.00000    
     0.143     0.429    0.00000    
     0.143     0.571    0.00000    
     0.143     0.714    0.00000    
     0.143     0.857    0.00000    
     0.143     1.000    0.00000    
     0.286     0.000   0.781831    
     0.286     0.143    0.00000    
     0.286     0.286    0.00000    
     0.286     0.429    0.00000    
     0.286     0.571    0.00000    
     0.286     0.714    0.00000    
     0.286     0.857    0.00000    
     0.286     1.000    0.00000    
     0.429     0.000   0.974928    
     0.429     0.143    0.00000    
     0.429     0.286    0.00000    
     0.429     0.429    0.00000    
     0.429     0.571    0.00000    
     0.429     0.714    0.00000    
     0.429     0.857    0.00000    
     0.429     1.000    0.00000    
     0.571     0.000   0.974928    
     0.571     0.143    0.00000    
     0.571     0.286    0.00000    
     0.571     0.429    0.00000    
     0.571     0.571    0.00000    
     0.571     0.714    0.00000    
     0.571     0.857    0.00000    
     0.571     1.000    0.00000    
     0.000     0.000   0.781831    
     0.000     0.143    0.00000    
     0.000     0.286    0.00000    
     0.000     0.429    0.00000    
     0.000     0.571    0.00000    
     0.000     0.714    0.00000    
     0.000     0.857    0.00000    
     0.000     1.000    0.00000    
     0.000     0.000   0.433884    
     0.000     0.143    0.00000    
     0.000     0.286    0.00000    
     0.000     0.429    0.00000    
     0.000     0.571    0.00000    
     0.000     0.714    0.00000    
     0.000     0.857    0.00000    
     0.000     1.000    0.00000    
     0.000     0.000    0.00000    
     0.000     0.143    0.00000    
     0.000     0.286    0.00000    
     0.000     0.429    0.00000    
     0.000     0.571    0.00000    
     0.000     0.714    0.00000    
     0.000     0.857    0.00000    
     0.000     1.000    0.00000    
