Title="Temperature Data"
Variables="X","Y","T"
 
Zone I=   128, J=   128, F=POINT
     0.000     0.000    0.00000    
     0.000     0.008    0.00000    
     0.000     0.016    0.00000    
     0.000     0.024    0.00000    
     0.000     0.031    0.00000    
     0.000     0.039    0.00000    
     0.000     0.047    0.00000    
     0.000     0.055    0.00000    
     0.000     0.063    0.00000    
     0.000     0.071    0.00000    
     0.000     0.079    0.00000    
     0.000     0.087    0.00000    
     0.000     0.094    0.00000    
     0.000     0.102    0.00000    
     0.000     0.110    0.00000    
     0.000     0.118    0.00000    
     0.000     0.126    0.00000    
     0.000     0.134    0.00000    
     0.000     0.142    0.00000    
     0.000     0.150    0.00000    
     0.000     0.157    0.00000    
     0.000     0.165    0.00000    
     0.000     0.173    0.00000    
     0.000     0.181    0.00000    
     0.000     0.189    0.00000    
     0.000     0.197    0.00000    
     0.000     0.205    0.00000    
     0.000     0.213    0.00000    
     0.000     0.220    0.00000    
     0.000     0.228    0.00000    
     0.000     0.236    0.00000    
     0.000     0.244    0.00000    
     0.000     0.252    0.00000    
     0.000     0.260    0.00000    
     0.000     0.268    0.00000    
     0.000     0.276    0.00000    
     0.000     0.283    0.00000    
     0.000     0.291    0.00000    
     0.000     0.299    0.00000    
     0.000     0.307    0.00000    
     0.000     0.315    0.00000    
     0.000     0.323    0.00000    
     0.000     0.331    0.00000    
     0.000     0.339    0.00000    
     0.000     0.346    0.00000    
     0.000     0.354    0.00000    
     0.000     0.362    0.00000    
     0.000     0.370    0.00000    
     0.000     0.378    0.00000    
     0.000     0.386    0.00000    
     0.000     0.394    0.00000    
     0.000     0.402    0.00000    
     0.000     0.409    0.00000    
     0.000     0.417    0.00000    
     0.000     0.425    0.00000    
     0.000     0.433    0.00000    
     0.000     0.441    0.00000    
     0.000     0.449    0.00000    
     0.000     0.457    0.00000    
     0.000     0.465    0.00000    
     0.000     0.472    0.00000    
     0.000     0.480    0.00000    
     0.000     0.488    0.00000    
     0.000     0.496    0.00000    
     0.000     0.504    0.00000    
     0.000     0.512    0.00000    
     0.000     0.520    0.00000    
     0.000     0.528    0.00000    
     0.000     0.535    0.00000    
     0.000     0.543    0.00000    
     0.000     0.551    0.00000    
     0.000     0.559    0.00000    
     0.000     0.567    0.00000    
     0.000     0.575    0.00000    
     0.000     0.583    0.00000    
     0.000     0.591    0.00000    
     0.000     0.598    0.00000    
     0.000     0.606    0.00000    
     0.000     0.614    0.00000    
     0.000     0.622    0.00000    
     0.000     0.630    0.00000    
     0.000     0.638    0.00000    
     0.000     0.646    0.00000    
     0.000     0.654    0.00000    
     0.000     0.661    0.00000    
     0.000     0.669    0.00000    
     0.000     0.677    0.00000    
     0.000     0.685    0.00000    
     0.000     0.693    0.00000    
     0.000     0.701    0.00000    
     0.000     0.709    0.00000    
     0.000     0.717    0.00000    
     0.000     0.724    0.00000    
     0.000     0.732    0.00000    
     0.000     0.740    0.00000    
     0.000     0.748    0.00000    
     0.000     0.756    0.00000    
     0.000     0.764    0.00000    
     0.000     0.772    0.00000    
     0.000     0.780    0.00000    
     0.000     0.787    0.00000    
     0.000     0.795    0.00000    
     0.000     0.803    0.00000    
     0.000     0.811    0.00000    
     0.000     0.819    0.00000    
     0.000     0.827    0.00000    
     0.000     0.835    0.00000    
     0.000     0.843    0.00000    
     0.000     0.850    0.00000    
     0.000     0.858    0.00000    
     0.000     0.866    0.00000    
     0.000     0.874    0.00000    
     0.000     0.882    0.00000    
     0.000     0.890    0.00000    
     0.000     0.898    0.00000    
     0.000     0.906    0.00000    
     0.000     0.913    0.00000    
     0.000     0.921    0.00000    
     0.000     0.929    0.00000    
     0.000     0.937    0.00000    
     0.000     0.945    0.00000    
     0.000     0.953    0.00000    
     0.000     0.961    0.00000    
     0.000     0.969    0.00000    
     0.000     0.976    0.00000    
     0.000     0.984    0.00000    
     0.000     0.992    0.00000    
     0.000     1.000    0.00000    
     0.008     0.000   0.247344E-01
     0.008     0.008   0.240296E-01
     0.008     0.016   0.233396E-01
     0.008     0.024   0.226642E-01
     0.008     0.031   0.220033E-01
     0.008     0.039   0.213565E-01
     0.008     0.047   0.207238E-01
     0.008     0.055   0.201046E-01
     0.008     0.063   0.194991E-01
     0.008     0.071   0.189068E-01
     0.008     0.079   0.183278E-01
     0.008     0.087   0.177615E-01
     0.008     0.094   0.172083E-01
     0.008     0.102   0.166673E-01
     0.008     0.110   0.161390E-01
     0.008     0.118   0.156226E-01
     0.008     0.126   0.151186E-01
     0.008     0.134   0.146261E-01
     0.008     0.142   0.141458E-01
     0.008     0.150   0.136765E-01
     0.008     0.157   0.132192E-01
     0.008     0.165   0.127725E-01
     0.008     0.173   0.123375E-01
     0.008     0.181   0.119128E-01
     0.008     0.189   0.114995E-01
     0.008     0.197   0.110962E-01
     0.008     0.205   0.107040E-01
     0.008     0.213   0.103215E-01
     0.008     0.220   0.994981E-02
     0.008     0.228   0.958746E-02
     0.008     0.236   0.923564E-02
     0.008     0.244   0.889285E-02
     0.008     0.252   0.856031E-02
     0.008     0.260   0.823648E-02
     0.008     0.268   0.792261E-02
     0.008     0.276   0.761714E-02
     0.008     0.283   0.732133E-02
     0.008     0.291   0.703361E-02
     0.008     0.299   0.675526E-02
     0.008     0.307   0.648468E-02
     0.008     0.315   0.622316E-02
     0.008     0.323   0.596910E-02
     0.008     0.331   0.572380E-02
     0.008     0.339   0.548565E-02
     0.008     0.346   0.525595E-02
     0.008     0.354   0.503309E-02
     0.008     0.362   0.481835E-02
     0.008     0.370   0.461017E-02
     0.008     0.378   0.440978E-02
     0.008     0.386   0.421564E-02
     0.008     0.394   0.402897E-02
     0.008     0.402   0.384826E-02
     0.008     0.409   0.367469E-02
     0.008     0.417   0.350678E-02
     0.008     0.425   0.334570E-02
     0.008     0.433   0.318998E-02
     0.008     0.441   0.304076E-02
     0.008     0.449   0.289662E-02
     0.008     0.457   0.275865E-02
     0.008     0.465   0.262548E-02
     0.008     0.472   0.249818E-02
     0.008     0.480   0.237539E-02
     0.008     0.488   0.225814E-02
     0.008     0.496   0.214515E-02
     0.008     0.504   0.203738E-02
     0.008     0.512   0.193361E-02
     0.008     0.520   0.183476E-02
     0.008     0.528   0.173965E-02
     0.008     0.535   0.164916E-02
     0.008     0.543   0.156217E-02
     0.008     0.551   0.147950E-02
     0.008     0.559   0.140010E-02
     0.008     0.567   0.132474E-02
     0.008     0.575   0.125241E-02
     0.008     0.583   0.118385E-02
     0.008     0.591   0.111810E-02
     0.008     0.598   0.105586E-02
     0.008     0.606   0.996226E-03
     0.008     0.614   0.939840E-03
     0.008     0.622   0.885859E-03
     0.008     0.630   0.834884E-03
     0.008     0.638   0.786124E-03
     0.008     0.646   0.740138E-03
     0.008     0.654   0.696188E-03
     0.008     0.661   0.654789E-03
     0.008     0.669   0.615256E-03
     0.008     0.677   0.578065E-03
     0.008     0.685   0.542579E-03
     0.008     0.693   0.509236E-03
     0.008     0.701   0.477448E-03
     0.008     0.709   0.447614E-03
     0.008     0.717   0.419194E-03
     0.008     0.724   0.392553E-03
     0.008     0.732   0.367193E-03
     0.008     0.740   0.343446E-03
     0.008     0.748   0.320857E-03
     0.008     0.756   0.299726E-03
     0.008     0.764   0.279639E-03
     0.008     0.772   0.260865E-03
     0.008     0.780   0.243028E-03
     0.008     0.787   0.226369E-03
     0.008     0.795   0.210549E-03
     0.008     0.803   0.195781E-03
     0.008     0.811   0.181759E-03
     0.008     0.819   0.168674E-03
     0.008     0.827   0.156250E-03
     0.008     0.835   0.144655E-03
     0.008     0.843   0.133641E-03
     0.008     0.850   0.123356E-03
     0.008     0.858   0.113580E-03
     0.008     0.866   0.104438E-03
     0.008     0.874   0.957379E-04
     0.008     0.882   0.875855E-04
     0.008     0.890   0.798113E-04
     0.008     0.898   0.725037E-04
     0.008     0.906   0.655153E-04
     0.008     0.913   0.589175E-04
     0.008     0.921   0.525836E-04
     0.008     0.929   0.465685E-04
     0.008     0.937   0.407652E-04
     0.008     0.945   0.352124E-04
     0.008     0.953   0.298218E-04
     0.008     0.961   0.246165E-04
     0.008     0.969   0.195256E-04
     0.008     0.976   0.145571E-04
     0.008     0.984   0.965666E-05
     0.008     0.992   0.481703E-05
     0.008     1.000    0.00000    
     0.016     0.000   0.494537E-01
     0.016     0.008   0.480444E-01
     0.016     0.016   0.466649E-01
     0.016     0.024   0.453147E-01
     0.016     0.031   0.439931E-01
     0.016     0.039   0.427001E-01
     0.016     0.047   0.414347E-01
     0.016     0.055   0.401971E-01
     0.016     0.063   0.389861E-01
     0.016     0.071   0.378023E-01
     0.016     0.079   0.366441E-01
     0.016     0.087   0.355125E-01
     0.016     0.094   0.344057E-01
     0.016     0.102   0.333247E-01
     0.016     0.110   0.322677E-01
     0.016     0.118   0.312360E-01
     0.016     0.126   0.302276E-01
     0.016     0.134   0.292437E-01
     0.016     0.142   0.282824E-01
     0.016     0.150   0.273452E-01
     0.016     0.157   0.264297E-01
     0.016     0.165   0.255377E-01
     0.016     0.173   0.246669E-01
     0.016     0.181   0.238189E-01
     0.016     0.189   0.229914E-01
     0.016     0.197   0.221863E-01
     0.016     0.205   0.214009E-01
     0.016     0.213   0.206374E-01
     0.016     0.220   0.198929E-01
     0.016     0.228   0.191697E-01
     0.016     0.236   0.184650E-01
     0.016     0.244   0.177809E-01
     0.016     0.252   0.171147E-01
     0.016     0.260   0.164686E-01
     0.016     0.268   0.158397E-01
     0.016     0.276   0.152303E-01
     0.016     0.283   0.146375E-01
     0.016     0.291   0.140636E-01
     0.016     0.299   0.135057E-01
     0.016     0.307   0.129661E-01
     0.016     0.315   0.124418E-01
     0.016     0.323   0.119353E-01
     0.016     0.331   0.114434E-01
     0.016     0.339   0.109687E-01
     0.016     0.346   0.105080E-01
     0.016     0.354   0.100638E-01
     0.016     0.362   0.963305E-02
     0.016     0.370   0.921822E-02
     0.016     0.378   0.881616E-02
     0.016     0.386   0.842939E-02
     0.016     0.394   0.805480E-02
     0.016     0.402   0.769484E-02
     0.016     0.409   0.734647E-02
     0.016     0.417   0.701208E-02
     0.016     0.425   0.668870E-02
     0.016     0.433   0.637865E-02
     0.016     0.441   0.607902E-02
     0.016     0.449   0.579208E-02
     0.016     0.457   0.551501E-02
     0.016     0.465   0.524997E-02
     0.016     0.472   0.499423E-02
     0.016     0.480   0.474990E-02
     0.016     0.488   0.451433E-02
     0.016     0.496   0.428954E-02
     0.016     0.504   0.407298E-02
     0.016     0.512   0.386657E-02
     0.016     0.520   0.366788E-02
     0.016     0.528   0.347874E-02
     0.016     0.535   0.329683E-02
     0.016     0.543   0.312386E-02
     0.016     0.551   0.295764E-02
     0.016     0.559   0.279979E-02
     0.016     0.567   0.264823E-02
     0.016     0.575   0.250448E-02
     0.016     0.583   0.236656E-02
     0.016     0.591   0.223592E-02
     0.016     0.598   0.211069E-02
     0.016     0.606   0.199222E-02
     0.016     0.614   0.187874E-02
     0.016     0.622   0.177152E-02
     0.016     0.630   0.166892E-02
     0.016     0.638   0.157209E-02
     0.016     0.646   0.147951E-02
     0.016     0.654   0.139225E-02
     0.016     0.661   0.130889E-02
     0.016     0.669   0.123041E-02
     0.016     0.677   0.115551E-02
     0.016     0.685   0.108508E-02
     0.016     0.693   0.101791E-02
     0.016     0.701   0.954838E-03
     0.016     0.709   0.894729E-03
     0.016     0.717   0.838348E-03
     0.016     0.724   0.784659E-03
     0.016     0.732   0.734358E-03
     0.016     0.740   0.686494E-03
     0.016     0.748   0.641697E-03
     0.016     0.756   0.599099E-03
     0.016     0.764   0.559269E-03
     0.016     0.772   0.521417E-03
     0.016     0.780   0.486053E-03
     0.016     0.787   0.452462E-03
     0.016     0.795   0.421099E-03
     0.016     0.803   0.391318E-03
     0.016     0.811   0.363524E-03
     0.016     0.819   0.337135E-03
     0.016     0.827   0.312508E-03
     0.016     0.835   0.289123E-03
     0.016     0.843   0.267292E-03
     0.016     0.850   0.246551E-03
     0.016     0.858   0.227170E-03
     0.016     0.866   0.208738E-03
     0.016     0.874   0.191487E-03
     0.016     0.882   0.175053E-03
     0.016     0.890   0.159633E-03
     0.016     0.898   0.144909E-03
     0.016     0.906   0.131040E-03
     0.016     0.913   0.117754E-03
     0.016     0.921   0.105176E-03
     0.016     0.929   0.930723E-04
     0.016     0.937   0.815373E-04
     0.016     0.945   0.703755E-04
     0.016     0.953   0.596489E-04
     0.016     0.961   0.491983E-04
     0.016     0.969   0.390549E-04
     0.016     0.976   0.290936E-04
     0.016     0.984   0.193152E-04
     0.016     0.992   0.962724E-05
     0.016     1.000    0.00000    
     0.024     0.000   0.741428E-01
     0.024     0.008   0.720299E-01
     0.024     0.016   0.699617E-01
     0.024     0.024   0.679372E-01
     0.024     0.031   0.659562E-01
     0.024     0.039   0.640173E-01
     0.024     0.047   0.621206E-01
     0.024     0.055   0.602646E-01
     0.024     0.063   0.584497E-01
     0.024     0.071   0.566741E-01
     0.024     0.079   0.549386E-01
     0.024     0.087   0.532411E-01
     0.024     0.094   0.515827E-01
     0.024     0.102   0.499610E-01
     0.024     0.110   0.483775E-01
     0.024     0.118   0.468295E-01
     0.024     0.126   0.453189E-01
     0.024     0.134   0.438425E-01
     0.024     0.142   0.424027E-01
     0.024     0.150   0.409961E-01
     0.024     0.157   0.396251E-01
     0.024     0.165   0.382863E-01
     0.024     0.173   0.369823E-01
     0.024     0.181   0.357093E-01
     0.024     0.189   0.344704E-01
     0.024     0.197   0.332616E-01
     0.024     0.205   0.320859E-01
     0.024     0.213   0.309393E-01
     0.024     0.220   0.298251E-01
     0.024     0.228   0.287389E-01
     0.024     0.236   0.276843E-01
     0.024     0.244   0.266568E-01
     0.024     0.252   0.256600E-01
     0.024     0.260   0.246893E-01
     0.024     0.268   0.237484E-01
     0.024     0.276   0.228328E-01
     0.024     0.283   0.219461E-01
     0.024     0.291   0.210836E-01
     0.024     0.299   0.202492E-01
     0.024     0.307   0.194382E-01
     0.024     0.315   0.186542E-01
     0.024     0.323   0.178927E-01
     0.024     0.331   0.171574E-01
     0.024     0.339   0.164435E-01
     0.024     0.346   0.157550E-01
     0.024     0.354   0.150869E-01
     0.024     0.362   0.144433E-01
     0.024     0.370   0.138192E-01
     0.024     0.378   0.132185E-01
     0.024     0.386   0.126366E-01
     0.024     0.394   0.120771E-01
     0.024     0.402   0.115354E-01
     0.024     0.409   0.110151E-01
     0.024     0.417   0.105118E-01
     0.024     0.425   0.100289E-01
     0.024     0.433   0.956212E-02
     0.024     0.441   0.911484E-02
     0.024     0.449   0.868276E-02
     0.024     0.457   0.826921E-02
     0.024     0.465   0.787003E-02
     0.024     0.472   0.748842E-02
     0.024     0.480   0.712035E-02
     0.024     0.488   0.676890E-02
     0.024     0.496   0.643019E-02
     0.024     0.504   0.610716E-02
     0.024     0.512   0.579610E-02
     0.024     0.520   0.549979E-02
     0.024     0.528   0.521469E-02
     0.024     0.535   0.494345E-02
     0.024     0.543   0.468268E-02
     0.024     0.551   0.443489E-02
     0.024     0.559   0.419687E-02
     0.024     0.567   0.397097E-02
     0.024     0.575   0.375416E-02
     0.024     0.583   0.354865E-02
     0.024     0.591   0.335158E-02
     0.024     0.598   0.316501E-02
     0.024     0.606   0.298624E-02
     0.024     0.614   0.281722E-02
     0.024     0.622   0.265541E-02
     0.024     0.630   0.250261E-02
     0.024     0.638   0.235645E-02
     0.024     0.646   0.221860E-02
     0.024     0.654   0.208686E-02
     0.024     0.661   0.196276E-02
     0.024     0.669   0.184426E-02
     0.024     0.677   0.173278E-02
     0.024     0.685   0.162641E-02
     0.024     0.693   0.152646E-02
     0.024     0.701   0.143117E-02
     0.024     0.709   0.134175E-02
     0.024     0.717   0.125656E-02
     0.024     0.724   0.117670E-02
     0.024     0.732   0.110068E-02
     0.024     0.740   0.102950E-02
     0.024     0.748   0.961787E-03
     0.024     0.756   0.898446E-03
     0.024     0.764   0.838234E-03
     0.024     0.772   0.781957E-03
     0.024     0.780   0.728490E-03
     0.024     0.787   0.678554E-03
     0.024     0.795   0.631131E-03
     0.024     0.803   0.586864E-03
     0.024     0.811   0.544833E-03
     0.024     0.819   0.505610E-03
     0.024     0.827   0.468368E-03
     0.024     0.835   0.433610E-03
     0.024     0.843   0.400597E-03
     0.024     0.850   0.369766E-03
     0.024     0.858   0.340461E-03
     0.024     0.866   0.313059E-03
     0.024     0.874   0.286979E-03
     0.024     0.882   0.262542E-03
     0.024     0.890   0.239238E-03
     0.024     0.898   0.217334E-03
     0.024     0.906   0.196386E-03
     0.024     0.913   0.176608E-03
     0.024     0.921   0.157622E-03
     0.024     0.929   0.139592E-03
     0.024     0.937   0.122196E-03
     0.024     0.945   0.105551E-03
     0.024     0.953   0.893923E-04
     0.024     0.961   0.737893E-04
     0.024     0.969   0.585291E-04
     0.024     0.976   0.436357E-04
     0.024     0.984   0.289463E-04
     0.024     0.992   0.144393E-04
     0.024     1.000    0.00000    
     0.031     0.000   0.987864E-01
     0.031     0.008   0.959713E-01
     0.031     0.016   0.932156E-01
     0.031     0.024   0.905185E-01
     0.031     0.031   0.878785E-01
     0.031     0.039   0.852957E-01
     0.031     0.047   0.827680E-01
     0.031     0.055   0.802958E-01
     0.031     0.063   0.778768E-01
     0.031     0.071   0.755120E-01
     0.031     0.079   0.731986E-01
     0.031     0.087   0.709380E-01
     0.031     0.094   0.687271E-01
     0.031     0.102   0.665678E-01
     0.031     0.110   0.644565E-01
     0.031     0.118   0.623956E-01
     0.031     0.126   0.603811E-01
     0.031     0.134   0.584159E-01
     0.031     0.142   0.564956E-01
     0.031     0.150   0.546234E-01
     0.031     0.157   0.527947E-01
     0.031     0.165   0.510130E-01
     0.031     0.173   0.492734E-01
     0.031     0.181   0.475796E-01
     0.031     0.189   0.459266E-01
     0.031     0.197   0.443183E-01
     0.031     0.205   0.427494E-01
     0.031     0.213   0.412242E-01
     0.031     0.220   0.397371E-01
     0.031     0.228   0.382925E-01
     0.031     0.236   0.368847E-01
     0.031     0.244   0.355184E-01
     0.031     0.252   0.341875E-01
     0.031     0.260   0.328969E-01
     0.031     0.268   0.316406E-01
     0.031     0.276   0.304234E-01
     0.031     0.283   0.292391E-01
     0.031     0.291   0.280929E-01
     0.031     0.299   0.269783E-01
     0.031     0.307   0.259005E-01
     0.031     0.315   0.248531E-01
     0.031     0.323   0.238413E-01
     0.031     0.331   0.228587E-01
     0.031     0.339   0.219105E-01
     0.031     0.346   0.209902E-01
     0.031     0.354   0.201030E-01
     0.031     0.362   0.192425E-01
     0.031     0.370   0.184139E-01
     0.031     0.378   0.176107E-01
     0.031     0.386   0.168381E-01
     0.031     0.394   0.160899E-01
     0.031     0.402   0.153708E-01
     0.031     0.409   0.146750E-01
     0.031     0.417   0.140070E-01
     0.031     0.425   0.133610E-01
     0.031     0.433   0.127417E-01
     0.031     0.441   0.121432E-01
     0.031     0.449   0.115700E-01
     0.031     0.457   0.110165E-01
     0.031     0.465   0.104871E-01
     0.031     0.472   0.997625E-02
     0.031     0.480   0.948818E-02
     0.031     0.488   0.901762E-02
     0.031     0.496   0.856858E-02
     0.031     0.504   0.813599E-02
     0.031     0.512   0.772367E-02
     0.031     0.520   0.732679E-02
     0.031     0.528   0.694897E-02
     0.031     0.535   0.658558E-02
     0.031     0.543   0.624007E-02
     0.031     0.551   0.590804E-02
     0.031     0.559   0.559273E-02
     0.031     0.567   0.528998E-02
     0.031     0.575   0.500282E-02
     0.031     0.583   0.472734E-02
     0.031     0.591   0.446637E-02
     0.031     0.598   0.421622E-02
     0.031     0.606   0.397956E-02
     0.031     0.614   0.375289E-02
     0.031     0.622   0.353871E-02
     0.031     0.630   0.333376E-02
     0.031     0.638   0.314034E-02
     0.031     0.646   0.295540E-02
     0.031     0.654   0.278109E-02
     0.031     0.661   0.261457E-02
     0.031     0.669   0.245782E-02
     0.031     0.677   0.230819E-02
     0.031     0.685   0.216751E-02
     0.031     0.693   0.203334E-02
     0.031     0.701   0.190734E-02
     0.031     0.709   0.178727E-02
     0.031     0.717   0.167464E-02
     0.031     0.724   0.156740E-02
     0.031     0.732   0.146692E-02
     0.031     0.740   0.137131E-02
     0.031     0.748   0.128182E-02
     0.031     0.756   0.119673E-02
     0.031     0.764   0.111717E-02
     0.031     0.772   0.104156E-02
     0.031     0.780   0.970917E-03
     0.031     0.787   0.903817E-03
     0.031     0.795   0.841168E-03
     0.031     0.803   0.781679E-03
     0.031     0.811   0.726159E-03
     0.031     0.819   0.673445E-03
     0.031     0.827   0.624252E-03
     0.031     0.835   0.577539E-03
     0.031     0.843   0.533930E-03
     0.031     0.850   0.492498E-03
     0.031     0.858   0.453784E-03
     0.031     0.866   0.416965E-03
     0.031     0.874   0.382504E-03
     0.031     0.882   0.349678E-03
     0.031     0.890   0.318875E-03
     0.031     0.898   0.289463E-03
     0.031     0.906   0.261760E-03
     0.031     0.913   0.235220E-03
     0.031     0.921   0.210094E-03
     0.031     0.929   0.185917E-03
     0.031     0.937   0.162875E-03
     0.031     0.945   0.140579E-03
     0.031     0.953   0.119152E-03
     0.031     0.961   0.982762E-04
     0.031     0.969   0.780143E-04
     0.031     0.976   0.581160E-04
     0.031     0.984   0.385831E-04
     0.031     0.992   0.192309E-04
     0.031     1.000    0.00000    
     0.039     0.000   0.123370    
     0.039     0.008   0.119854    
     0.039     0.016   0.116413    
     0.039     0.024   0.113044    
     0.039     0.031   0.109748    
     0.039     0.039   0.106521    
     0.039     0.047   0.103365    
     0.039     0.055   0.100277    
     0.039     0.063   0.972572E-01
     0.039     0.071   0.943027E-01
     0.039     0.079   0.914150E-01
     0.039     0.087   0.885903E-01
     0.039     0.094   0.858309E-01
     0.039     0.102   0.831324E-01
     0.039     0.110   0.804976E-01
     0.039     0.118   0.779218E-01
     0.039     0.126   0.754082E-01
     0.039     0.134   0.729517E-01
     0.039     0.142   0.705559E-01
     0.039     0.150   0.682153E-01
     0.039     0.157   0.659341E-01
     0.039     0.165   0.637063E-01
     0.039     0.173   0.615365E-01
     0.039     0.181   0.594184E-01
     0.039     0.189   0.573570E-01
     0.039     0.197   0.553455E-01
     0.039     0.205   0.533893E-01
     0.039     0.213   0.514814E-01
     0.039     0.220   0.496274E-01
     0.039     0.228   0.478201E-01
     0.039     0.236   0.460652E-01
     0.039     0.244   0.443555E-01
     0.039     0.252   0.426968E-01
     0.039     0.260   0.410817E-01
     0.039     0.268   0.395162E-01
     0.039     0.276   0.379925E-01
     0.039     0.283   0.365171E-01
     0.039     0.291   0.350820E-01
     0.039     0.299   0.336937E-01
     0.039     0.307   0.323441E-01
     0.039     0.315   0.310397E-01
     0.039     0.323   0.297725E-01
     0.039     0.331   0.285490E-01
     0.039     0.339   0.273612E-01
     0.039     0.346   0.262154E-01
     0.039     0.354   0.251039E-01
     0.039     0.362   0.240328E-01
     0.039     0.370   0.229944E-01
     0.039     0.378   0.219950E-01
     0.039     0.386   0.210266E-01
     0.039     0.394   0.200956E-01
     0.039     0.402   0.191942E-01
     0.039     0.409   0.183285E-01
     0.039     0.417   0.174910E-01
     0.039     0.425   0.166876E-01
     0.039     0.433   0.159109E-01
     0.039     0.441   0.151666E-01
     0.039     0.449   0.144477E-01
     0.039     0.457   0.137595E-01
     0.039     0.465   0.130953E-01
     0.039     0.472   0.124603E-01
     0.039     0.480   0.118479E-01
     0.039     0.488   0.112631E-01
     0.039     0.496   0.106995E-01
     0.039     0.504   0.101620E-01
     0.039     0.512   0.964441E-02
     0.039     0.520   0.915137E-02
     0.039     0.528   0.867698E-02
     0.039     0.535   0.822564E-02
     0.039     0.543   0.779174E-02
     0.039     0.551   0.737943E-02
     0.039     0.559   0.698337E-02
     0.039     0.567   0.660749E-02
     0.039     0.575   0.624673E-02
     0.039     0.583   0.590477E-02
     0.039     0.591   0.557684E-02
     0.039     0.598   0.526640E-02
     0.039     0.606   0.496895E-02
     0.039     0.614   0.468771E-02
     0.039     0.622   0.441846E-02
     0.039     0.630   0.416421E-02
     0.039     0.638   0.392101E-02
     0.039     0.646   0.369164E-02
     0.039     0.654   0.347242E-02
     0.039     0.661   0.326594E-02
     0.039     0.669   0.306876E-02
     0.039     0.677   0.288325E-02
     0.039     0.685   0.270626E-02
     0.039     0.693   0.253995E-02
     0.039     0.701   0.238140E-02
     0.039     0.709   0.223260E-02
     0.039     0.717   0.209084E-02
     0.039     0.724   0.195796E-02
     0.039     0.732   0.183147E-02
     0.039     0.740   0.171303E-02
     0.039     0.748   0.160036E-02
     0.039     0.756   0.149497E-02
     0.039     0.764   0.139478E-02
     0.039     0.772   0.130114E-02
     0.039     0.780   0.121217E-02
     0.039     0.787   0.112908E-02
     0.039     0.795   0.105017E-02
     0.039     0.803   0.976510E-03
     0.039     0.811   0.906573E-03
     0.039     0.819   0.841308E-03
     0.039     0.827   0.779340E-03
     0.039     0.835   0.721504E-03
     0.039     0.843   0.666572E-03
     0.039     0.850   0.615271E-03
     0.039     0.858   0.566509E-03
     0.039     0.866   0.520913E-03
     0.039     0.874   0.477519E-03
     0.039     0.882   0.436856E-03
     0.039     0.890   0.398080E-03
     0.039     0.898   0.361632E-03
     0.039     0.906   0.326775E-03
     0.039     0.913   0.293867E-03
     0.039     0.921   0.262275E-03
     0.039     0.929   0.232273E-03
     0.039     0.937   0.203327E-03
     0.039     0.945   0.175631E-03
     0.039     0.953   0.148744E-03
     0.039     0.961   0.122781E-03
     0.039     0.969   0.973893E-04
     0.039     0.976   0.726075E-04
     0.039     0.984   0.481652E-04
     0.039     0.992   0.240263E-04
     0.039     1.000    0.00000    
     0.047     0.000   0.147877    
     0.047     0.008   0.143663    
     0.047     0.016   0.139538    
     0.047     0.024   0.135501    
     0.047     0.031   0.131549    
     0.047     0.039   0.127683    
     0.047     0.047   0.123899    
     0.047     0.055   0.120198    
     0.047     0.063   0.116577    
     0.047     0.071   0.113037    
     0.047     0.079   0.109574    
     0.047     0.087   0.106190    
     0.047     0.094   0.102880    
     0.047     0.102   0.996480E-01
     0.047     0.110   0.964875E-01
     0.047     0.118   0.934025E-01
     0.047     0.126   0.903870E-01
     0.047     0.134   0.874451E-01
     0.047     0.142   0.845705E-01
     0.047     0.150   0.817680E-01
     0.047     0.157   0.790305E-01
     0.047     0.165   0.763634E-01
     0.047     0.173   0.737593E-01
     0.047     0.181   0.712238E-01
     0.047     0.189   0.687493E-01
     0.047     0.197   0.663418E-01
     0.047     0.205   0.639933E-01
     0.047     0.213   0.617102E-01
     0.047     0.220   0.594841E-01
     0.047     0.228   0.573216E-01
     0.047     0.236   0.552142E-01
     0.047     0.244   0.531689E-01
     0.047     0.252   0.511766E-01
     0.047     0.260   0.492448E-01
     0.047     0.268   0.473641E-01
     0.047     0.276   0.455420E-01
     0.047     0.283   0.437692E-01
     0.047     0.291   0.420533E-01
     0.047     0.299   0.403849E-01
     0.047     0.307   0.387715E-01
     0.047     0.315   0.372036E-01
     0.047     0.323   0.356891E-01
     0.047     0.331   0.342182E-01
     0.047     0.339   0.327987E-01
     0.047     0.346   0.314211E-01
     0.047     0.354   0.300930E-01
     0.047     0.362   0.288049E-01
     0.047     0.370   0.275645E-01
     0.047     0.378   0.263622E-01
     0.047     0.386   0.252057E-01
     0.047     0.394   0.240856E-01
     0.047     0.402   0.230092E-01
     0.047     0.409   0.219675E-01
     0.047     0.417   0.209676E-01
     0.047     0.425   0.200007E-01
     0.047     0.433   0.190735E-01
     0.047     0.441   0.181776E-01
     0.047     0.449   0.173196E-01
     0.047     0.457   0.164911E-01
     0.047     0.465   0.156985E-01
     0.047     0.472   0.149338E-01
     0.047     0.480   0.142032E-01
     0.047     0.488   0.134988E-01