Title="Temperature Data"
Variables="X","Y","T"
 
Zone I=   128, J=   128, F=POINT
     0.000     0.000    0.00000    
     0.000     0.008    0.00000    
     0.000     0.016    0.00000    
     0.000     0.024    0.00000    
     0.000     0.031    0.00000    
     0.000     0.039    0.00000    
     0.000     0.047    0.00000    
     0.000     0.055    0.00000    
     0.000     0.063    0.00000    
     0.000     0.071    0.00000    
     0.000     0.079    0.00000    
     0.000     0.087    0.00000    
     0.000     0.094    0.00000    
     0.000     0.102    0.00000    
     0.000     0.110    0.00000    
     0.000     0.118    0.00000    
     0.000     0.126    0.00000    
     0.000     0.134    0.00000    
     0.000     0.142    0.00000    
     0.000     0.150    0.00000    
     0.000     0.157    0.00000    
     0.000     0.165    0.00000    
     0.000     0.173    0.00000    
     0.000     0.181    0.00000    
     0.000     0.189    0.00000    
     0.000     0.197    0.00000    
     0.000     0.205    0.00000    
     0.000     0.213    0.00000    
     0.000     0.220    0.00000    
     0.000     0.228    0.00000    
     0.000     0.236    0.00000    
     0.000     0.244    0.00000    
     0.000     0.252    0.00000    
     0.000     0.260    0.00000    
     0.000     0.268    0.00000    
     0.000     0.276    0.00000    
     0.000     0.283    0.00000    
     0.000     0.291    0.00000    
     0.000     0.299    0.00000    
     0.000     0.307    0.00000    
     0.000     0.315    0.00000    
     0.000     0.323    0.00000    
     0.000     0.331    0.00000    
     0.000     0.339    0.00000    
     0.000     0.346    0.00000    
     0.000     0.354    0.00000    
     0.000     0.362    0.00000    
     0.000     0.370    0.00000    
     0.000     0.378    0.00000    
     0.000     0.386    0.00000    
     0.000     0.394    0.00000    
     0.000     0.402    0.00000    
     0.000     0.409    0.00000    
     0.000     0.417    0.00000    
     0.000     0.425    0.00000    
     0.000     0.433    0.00000    
     0.000     0.441    0.00000    
     0.000     0.449    0.00000    
     0.000     0.457    0.00000    
     0.000     0.465    0.00000    
     0.000     0.472    0.00000    
     0.000     0.480    0.00000    
     0.000     0.488    0.00000    
     0.000     0.496    0.00000    
     0.000     0.504    0.00000    
     0.000     0.512    0.00000    
     0.000     0.520    0.00000    
     0.000     0.528    0.00000    
     0.000     0.535    0.00000    
     0.000     0.543    0.00000    
     0.000     0.551    0.00000    
     0.000     0.559    0.00000    
     0.000     0.567    0.00000    
     0.000     0.575    0.00000    
     0.000     0.583    0.00000    
     0.000     0.591    0.00000    
     0.000     0.598    0.00000    
     0.000     0.606    0.00000    
     0.000     0.614    0.00000    
     0.000     0.622    0.00000    
     0.000     0.630    0.00000    
     0.000     0.638    0.00000    
     0.000     0.646    0.00000    
     0.000     0.654    0.00000    
     0.000     0.661    0.00000    
     0.000     0.669    0.00000    
     0.000     0.677    0.00000    
     0.000     0.685    0.00000    
     0.000     0.693    0.00000    
     0.000     0.701    0.00000    
     0.000     0.709    0.00000    
     0.000     0.717    0.00000    
     0.000     0.724    0.00000    
     0.000     0.732    0.00000    
     0.000     0.740    0.00000    
     0.000     0.748    0.00000    
     0.000     0.756    0.00000    
     0.000     0.764    0.00000    
     0.000     0.772    0.00000    
     0.000     0.780    0.00000    
     0.000     0.787    0.00000    
     0.000     0.795    0.00000    
     0.000     0.803    0.00000    
     0.000     0.811    0.00000    
     0.000     0.819    0.00000    
     0.000     0.827    0.00000    
     0.000     0.835    0.00000    
     0.000     0.843    0.00000    
     0.000     0.850    0.00000    
     0.000     0.858    0.00000    
     0.000     0.866    0.00000    
     0.000     0.874    0.00000    
     0.000     0.882    0.00000    
     0.000     0.890    0.00000    
     0.000     0.898    0.00000    
     0.000     0.906    0.00000    
     0.000     0.913    0.00000    
     0.000     0.921    0.00000    
     0.000     0.929    0.00000    
     0.000     0.937    0.00000    
     0.000     0.945    0.00000    
     0.000     0.953    0.00000    
     0.000     0.961    0.00000    
     0.000     0.969    0.00000    
     0.000     0.976    0.00000    
     0.000     0.984    0.00000    
     0.000     0.992    0.00000    
     0.000     1.000    0.00000    
     0.008     0.000   0.247344E-01
     0.008     0.008   0.239990E-01
     0.008     0.016   0.232786E-01
     0.008     0.024   0.225728E-01
     0.008     0.031   0.218817E-01
     0.008     0.039   0.212049E-01
     0.008     0.047   0.205426E-01
     0.008     0.055   0.198940E-01
     0.008     0.063   0.192598E-01
     0.008     0.071   0.186389E-01
     0.008     0.079   0.180322E-01
     0.008     0.087   0.174385E-01
     0.008     0.094   0.168587E-01
     0.008     0.102   0.162916E-01
     0.008     0.110   0.157382E-01
     0.008     0.118   0.151971E-01
     0.008     0.126   0.146697E-01
     0.008     0.134   0.141542E-01
     0.008     0.142   0.136521E-01
     0.008     0.150   0.131616E-01
     0.008     0.157   0.126844E-01
     0.008     0.165   0.122184E-01
     0.008     0.173   0.117656E-01
     0.008     0.181   0.113236E-01
     0.008     0.189   0.108945E-01
     0.008     0.197   0.104760E-01
     0.008     0.205   0.100702E-01
     0.008     0.213   0.967458E-02
     0.008     0.220   0.929142E-02
     0.008     0.228   0.891814E-02
     0.008     0.236   0.855707E-02
     0.008     0.244   0.820552E-02
     0.008     0.252   0.786589E-02
     0.008     0.260   0.753546E-02
     0.008     0.268   0.721665E-02
     0.008     0.276   0.690669E-02
     0.008     0.283   0.660802E-02
     0.008     0.291   0.631786E-02
     0.008     0.299   0.603866E-02
     0.008     0.307   0.576761E-02
     0.008     0.315   0.550716E-02
     0.008     0.323   0.525451E-02
     0.008     0.331   0.501209E-02
     0.008     0.339   0.477712E-02
     0.008     0.346   0.455198E-02
     0.008     0.354   0.433394E-02
     0.008     0.362   0.412533E-02
     0.008     0.370   0.392347E-02
     0.008     0.378   0.373063E-02
     0.008     0.386   0.354419E-02
     0.008     0.394   0.336634E-02
     0.008     0.402   0.319455E-02
     0.008     0.409   0.303093E-02
     0.008     0.417   0.287301E-02
     0.008     0.425   0.272284E-02
     0.008     0.433   0.257803E-02
     0.008     0.441   0.244055E-02
     0.008     0.449   0.230809E-02
     0.008     0.457   0.218254E-02
     0.008     0.465   0.206168E-02
     0.008     0.472   0.194731E-02
     0.008     0.480   0.183732E-02
     0.008     0.488   0.173339E-02
     0.008     0.496   0.163355E-02
     0.008     0.504   0.153936E-02
     0.008     0.512   0.144895E-02
     0.008     0.520   0.136381E-02
     0.008     0.528   0.128217E-02
     0.008     0.535   0.120540E-02
     0.008     0.543   0.113186E-02
     0.008     0.551   0.106283E-02
     0.008     0.559   0.996763E-03
     0.008     0.567   0.934851E-03
     0.008     0.575   0.875657E-03
     0.008     0.583   0.820278E-03
     0.008     0.591   0.767382E-03
     0.008     0.598   0.717978E-03
     0.008     0.606   0.670838E-03
     0.008     0.614   0.626883E-03
     0.008     0.622   0.584983E-03
     0.008     0.630   0.545981E-03
     0.008     0.638   0.508840E-03
     0.008     0.646   0.474327E-03
     0.008     0.654   0.441493E-03
     0.008     0.661   0.411034E-03
     0.008     0.669   0.382086E-03
     0.008     0.677   0.355277E-03
     0.008     0.685   0.329825E-03
     0.008     0.693   0.306292E-03
     0.008     0.701   0.283973E-03
     0.008     0.709   0.263372E-03
     0.008     0.717   0.243852E-03
     0.008     0.724   0.225864E-03
     0.008     0.732   0.208837E-03
     0.008     0.740   0.193172E-03
     0.008     0.748   0.178358E-03
     0.008     0.756   0.164750E-03
     0.008     0.764   0.151893E-03
     0.008     0.772   0.140100E-03
     0.008     0.780   0.128968E-03
     0.008     0.787   0.118771E-03
     0.008     0.795   0.109153E-03
     0.008     0.803   0.100354E-03
     0.008     0.811   0.920588E-04
     0.008     0.819   0.844778E-04
     0.008     0.827   0.773345E-04
     0.008     0.835   0.708102E-04
     0.008     0.843   0.646637E-04
     0.008     0.850   0.590506E-04
     0.008     0.858   0.537617E-04
     0.008     0.866   0.489292E-04
     0.008     0.874   0.443725E-04
     0.008     0.882   0.402028E-04
     0.008     0.890   0.362653E-04
     0.008     0.898   0.326521E-04
     0.008     0.906   0.292319E-04
     0.008     0.913   0.260789E-04
     0.008     0.921   0.230833E-04
     0.008     0.929   0.203030E-04
     0.008     0.937   0.176473E-04
     0.008     0.945   0.151589E-04
     0.008     0.953   0.127650E-04
     0.008     0.961   0.104938E-04
     0.008     0.969   0.828867E-05
     0.008     0.976   0.616400E-05
     0.008     0.984   0.407847E-05
     0.008     0.992   0.203276E-05
     0.008     1.000    0.00000    
     0.016     0.000   0.494537E-01
     0.016     0.008   0.479834E-01
     0.016     0.016   0.465428E-01
     0.016     0.024   0.451319E-01
     0.016     0.031   0.437498E-01
     0.016     0.039   0.423971E-01
     0.016     0.047   0.410722E-01
     0.016     0.055   0.397762E-01
     0.016     0.063   0.385073E-01
     0.016     0.071   0.372669E-01
     0.016     0.079   0.360528E-01
     0.016     0.087   0.348669E-01
     0.016     0.094   0.337065E-01
     0.016     0.102   0.325739E-01
     0.016     0.110   0.314661E-01
     0.016     0.118   0.303858E-01
     0.016     0.126   0.293296E-01
     0.016     0.134   0.283006E-01
     0.016     0.142   0.272949E-01
     0.016     0.150   0.263161E-01
     0.016     0.157   0.253601E-01
     0.016     0.165   0.244304E-01
     0.016     0.173   0.235229E-01
     0.016     0.181   0.226414E-01
     0.016     0.189   0.217813E-01
     0.016     0.197   0.209468E-01
     0.016     0.205   0.201330E-01
     0.016     0.213   0.193444E-01
     0.016     0.220   0.185759E-01
     0.016     0.228   0.178321E-01
     0.016     0.236   0.171076E-01
     0.016     0.244   0.164073E-01
     0.016     0.252   0.157257E-01
     0.016     0.260   0.150676E-01
     0.016     0.268   0.144276E-01
     0.016     0.276   0.138105E-01
     0.016     0.283   0.132107E-01
     0.016     0.291   0.126332E-01
     0.016     0.299   0.120723E-01
     0.016     0.307   0.115330E-01
     0.016     0.315   0.110096E-01
     0.016     0.323   0.105071E-01
     0.016     0.331   0.100198E-01
     0.016     0.339   0.955259E-02
     0.016     0.346   0.909991E-02
     0.016     0.354   0.866649E-02
     0.016     0.362   0.824690E-02
     0.016     0.370   0.784577E-02
     0.016     0.378   0.745778E-02
     0.016     0.386   0.708740E-02
     0.016     0.394   0.672946E-02
     0.016     0.402   0.638829E-02
     0.016     0.409   0.605887E-02
     0.016     0.417   0.574537E-02
     0.016     0.425   0.544292E-02
     0.016     0.433   0.515555E-02
     0.016     0.441   0.487856E-02
     0.016     0.449   0.461579E-02
     0.016     0.457   0.436275E-02
     0.016     0.465   0.412307E-02
     0.016     0.472   0.389248E-02
     0.016     0.480   0.367443E-02
     0.016     0.488   0.346484E-02
     0.016     0.496   0.326696E-02
     0.016     0.504   0.307694E-02
     0.016     0.512   0.289783E-02
     0.016     0.520   0.272600E-02
     0.016     0.528   0.256430E-02
     0.016     0.535   0.240933E-02
     0.016     0.543   0.226373E-02
     0.016     0.551   0.212432E-02
     0.016     0.559   0.199357E-02
     0.016     0.567   0.186850E-02
     0.016     0.575   0.175139E-02
     0.016     0.583   0.163947E-02
     0.016     0.591   0.153485E-02
     0.016     0.598   0.143498E-02
     0.016     0.606   0.134178E-02
     0.016     0.614   0.125289E-02
     0.016     0.622   0.117008E-02
     0.016     0.630   0.109118E-02
     0.016     0.638   0.101780E-02
     0.016     0.646   0.947954E-03
     0.016     0.654   0.883106E-03
     0.016     0.661   0.821445E-03
     0.016     0.669   0.764292E-03
     0.016     0.677   0.710002E-03
     0.016     0.685   0.659766E-03
     0.016     0.693   0.612096E-03
     0.016     0.701   0.568058E-03
     0.016     0.709   0.526311E-03
     0.016     0.717   0.487810E-03
     0.016     0.724   0.451347E-03
     0.016     0.732   0.417774E-03
     0.016     0.740   0.386010E-03
     0.016     0.748   0.356810E-03
     0.016     0.756   0.329208E-03
     0.016     0.764   0.303873E-03
     0.016     0.772   0.279946E-03
     0.016     0.780   0.258016E-03
     0.016     0.787   0.237321E-03
     0.016     0.795   0.218378E-03
     0.016     0.803   0.200516E-03
     0.016     0.811   0.184183E-03
     0.016     0.819   0.168790E-03
     0.016     0.827   0.154728E-03
     0.016     0.835   0.141479E-03
     0.016     0.843   0.129379E-03
     0.016     0.850   0.117980E-03
     0.016     0.858   0.107569E-03
     0.016     0.866   0.977561E-04
     0.016     0.874   0.887845E-04
     0.016     0.882   0.803198E-04
     0.016     0.890   0.725644E-04
     0.016     0.898   0.652333E-04
     0.016     0.906   0.584921E-04
     0.016     0.913   0.521003E-04
     0.016     0.921   0.461898E-04
     0.016     0.929   0.405605E-04
     0.016     0.937   0.353127E-04
     0.016     0.945   0.302835E-04
     0.016     0.953   0.255435E-04
     0.016     0.961   0.209636E-04
     0.016     0.969   0.165862E-04
     0.016     0.976   0.123138E-04
     0.016     0.984   0.816135E-05
     0.016     0.992   0.406082E-05
     0.016     1.000    0.00000    
     0.024     0.000   0.741428E-01
     0.024     0.008   0.719382E-01
     0.024     0.016   0.697787E-01
     0.024     0.024   0.676630E-01
     0.024     0.031   0.655916E-01
     0.024     0.039   0.635627E-01
     0.024     0.047   0.615774E-01
     0.024     0.055   0.596333E-01
     0.024     0.063   0.577322E-01
     0.024     0.071   0.558711E-01
     0.024     0.079   0.540525E-01
     0.024     0.087   0.522727E-01
     0.024     0.094   0.505349E-01
     0.024     0.102   0.488348E-01
     0.024     0.110   0.471762E-01
     0.024     0.118   0.455542E-01
     0.024     0.126   0.439732E-01
     0.024     0.134   0.424279E-01
     0.024     0.142   0.409229E-01
     0.024     0.150   0.394526E-01
     0.024     0.157   0.380222E-01
     0.024     0.165   0.366254E-01
     0.024     0.173   0.352679E-01
     0.024     0.181   0.339431E-01
     0.024     0.189   0.326569E-01
     0.024     0.197   0.314024E-01
     0.024     0.205   0.301859E-01
     0.024     0.213   0.290001E-01
     0.024     0.220   0.278515E-01
     0.024     0.228   0.267326E-01
     0.024     0.236   0.256503E-01
     0.024     0.244   0.245965E-01
     0.024     0.252   0.235784E-01
     0.024     0.260   0.225879E-01
     0.024     0.268   0.216323E-01
     0.024     0.276   0.207032E-01
     0.024     0.283   0.198079E-01
     0.024     0.291   0.189381E-01
     0.024     0.299   0.181012E-01
     0.024     0.307   0.172887E-01
     0.024     0.315   0.165080E-01
     0.024     0.323   0.157507E-01
     0.024     0.331   0.150240E-01
     0.024     0.339   0.143197E-01
     0.024     0.346   0.136448E-01
     0.024     0.354   0.129912E-01
     0.024     0.362   0.123659E-01
     0.024     0.370   0.117608E-01
     0.024     0.378   0.111828E-01
     0.024     0.386   0.106239E-01
     0.024     0.394   0.100908E-01
     0.024     0.402   0.957582E-02
     0.024     0.409   0.908536E-02
     0.024     0.417   0.861199E-02
     0.024     0.425   0.816185E-02
     0.024     0.433   0.772779E-02
     0.024     0.441   0.731567E-02
     0.024     0.449   0.691863E-02
     0.024     0.457   0.654227E-02
     0.024     0.465   0.618001E-02
     0.024     0.472   0.583716E-02
     0.024     0.480   0.550746E-02
     0.024     0.488   0.519594E-02
     0.024     0.496   0.489664E-02
     0.024     0.504   0.461431E-02
     0.024     0.512   0.434331E-02
     0.024     0.520   0.408809E-02
     0.024     0.528   0.384336E-02
     0.024     0.535   0.361325E-02
     0.024     0.543   0.339281E-02
     0.024     0.551   0.318588E-02
     0.024     0.559   0.298785E-02
     0.024     0.567   0.280226E-02
     0.024     0.575   0.262483E-02
     0.024     0.583   0.245883E-02
     0.024     0.591   0.230027E-02
     0.024     0.598   0.215218E-02
     0.024     0.606   0.201087E-02
     0.024     0.614   0.187911E-02
     0.024     0.622   0.175352E-02
     0.024     0.630   0.163661E-02
     0.024     0.638   0.152528E-02
     0.024     0.646   0.142182E-02
     0.024     0.654   0.132340E-02
     0.024     0.661   0.123210E-02
     0.024     0.669   0.114532E-02
     0.024     0.677   0.106496E-02
     0.024     0.685   0.988668E-03
     0.024     0.693   0.918128E-03
     0.024     0.701   0.851224E-03
     0.024     0.709   0.789470E-03
     0.024     0.717   0.730958E-03
     0.024     0.724   0.677039E-03
     0.024     0.732   0.626000E-03
     0.024     0.740   0.579043E-03
     0.024     0.748   0.534637E-03
     0.024     0.756   0.493846E-03
     0.024     0.764   0.455307E-03
     0.024     0.772   0.419958E-03
     0.024     0.780   0.386588E-03
     0.024     0.787   0.356023E-03
     0.024     0.795   0.327192E-03
     0.024     0.803   0.300816E-03
     0.024     0.811   0.275951E-03
     0.024     0.819   0.253227E-03
     0.024     0.827   0.231814E-03
     0.024     0.835   0.212257E-03
     0.024     0.843   0.193833E-03
     0.024     0.850   0.177007E-03
     0.024     0.858   0.161154E-03
     0.024     0.866   0.146668E-03
     0.024     0.874   0.133009E-03
     0.024     0.882   0.120510E-03
     0.024     0.890   0.108707E-03
     0.024     0.898   0.978764E-04
     0.024     0.906   0.876242E-04
     0.024     0.913   0.781730E-04
     0.024     0.921   0.691935E-04
     0.024     0.929   0.608592E-04
     0.024     0.937   0.528986E-04
     0.024     0.945   0.454397E-04
     0.024     0.953   0.382638E-04
     0.024     0.961   0.314557E-04
     0.024     0.969   0.248457E-04
     0.024     0.976   0.184769E-04
     0.024     0.984   0.122254E-04
     0.024     0.992   0.609329E-05
     0.024     1.000    0.00000    
     0.031     0.000   0.987864E-01
     0.031     0.008   0.958493E-01
     0.031     0.016   0.929716E-01
     0.031     0.024   0.901533E-01
     0.031     0.031   0.873926E-01
     0.031     0.039   0.846904E-01
     0.031     0.047   0.820439E-01
     0.031     0.055   0.794551E-01
     0.031     0.063   0.769204E-01
     0.031     0.071   0.744427E-01
     0.031     0.079   0.720175E-01
     0.031     0.087   0.696485E-01
     0.031     0.094   0.673305E-01
     0.031     0.102   0.650681E-01
     0.031     0.110   0.628552E-01
     0.031     0.118   0.606972E-01
     0.031     0.126   0.585874E-01
     0.031     0.134   0.565319E-01
     0.031     0.142   0.545231E-01
     0.031     0.150   0.525679E-01
     0.031     0.157   0.506581E-01
     0.031     0.165   0.488011E-01
     0.031     0.173   0.469882E-01
     0.031     0.181   0.452273E-01
     0.031     0.189   0.435092E-01
     0.031     0.197   0.418423E-01
     0.031     0.205   0.402168E-01
     0.031     0.213   0.386415E-01
     0.031     0.220   0.371064E-01
     0.031     0.228   0.356205E-01
     0.031     0.236   0.341734E-01
     0.031     0.244   0.327744E-01
     0.031     0.252   0.314129E-01
     0.031     0.260   0.300984E-01
     0.031     0.268   0.288199E-01
     0.031     0.276   0.275871E-01
     0.031     0.283   0.263891E-01
     0.031     0.291   0.252354E-01
     0.031     0.299   0.241151E-01
     0.031     0.307   0.230378E-01
     0.031     0.315   0.219923E-01
     0.031     0.323   0.209885E-01
     0.031     0.331   0.200151E-01
     0.031     0.339   0.190818E-01
     0.031     0.346   0.181775E-01
     0.031     0.354   0.173118E-01
     0.031     0.362   0.164736E-01
     0.031     0.370   0.156723E-01
     0.031     0.378   0.148973E-01
     0.031     0.386   0.141575E-01
     0.031     0.394   0.134424E-01
     0.031     0.402   0.127609E-01
     0.031     0.409   0.121029E-01
     0.031     0.417   0.114767E-01
     0.031     0.425   0.108725E-01
     0.031     0.433   0.102985E-01
     0.031     0.441   0.974519E-02
     0.031     0.449   0.922029E-02
     0.031     0.457   0.871482E-02
     0.031     0.465   0.823605E-02
     0.031     0.472   0.777544E-02
     0.031     0.480   0.733986E-02
     0.031     0.488   0.692119E-02
     0.031     0.496   0.652592E-02
     0.031     0.504   0.614634E-02
     0.031     0.512   0.578857E-02
     0.031     0.520   0.544533E-02
     0.031     0.528   0.512233E-02
     0.031     0.535   0.481276E-02
     0.031     0.543   0.452193E-02
     0.031     0.551   0.424345E-02
     0.031     0.559   0.398226E-02
     0.031     0.567   0.373242E-02
     0.031     0.575   0.349848E-02
     0.031     0.583   0.327493E-02
     0.031     0.591   0.306595E-02
     0.031     0.598   0.286645E-02
     0.031     0.606   0.268027E-02
     0.031     0.614   0.250271E-02
     0.031     0.622   0.233729E-02
     0.031     0.630   0.217969E-02
     0.031     0.638   0.203311E-02
     0.031     0.646   0.189359E-02
     0.031     0.654   0.176405E-02
     0.031     0.661   0.164088E-02
     0.031     0.669   0.152671E-02
     0.031     0.677   0.141827E-02
     0.031     0.685   0.131792E-02
     0.031     0.693   0.122269E-02
     0.031     0.701   0.113473E-02
     0.031     0.709   0.105133E-02
     0.031     0.717   0.974426E-03
     0.031     0.724   0.901590E-03
     0.031     0.732   0.834527E-03
     0.031     0.740   0.771075E-03
     0.031     0.748   0.712746E-03
     0.031     0.756   0.657610E-03
     0.031     0.764   0.607002E-03
     0.031     0.772   0.559207E-03
     0.031     0.780   0.515400E-03
     0.031     0.787   0.474062E-03
     0.031     0.795   0.436222E-03
     0.031     0.803   0.400541E-03
     0.031     0.811   0.367915E-03
     0.031     0.819   0.337168E-03
     0.031     0.827   0.309076E-03
     0.031     0.835   0.282611E-03
     0.031     0.843   0.258442E-03
     0.031     0.850   0.235672E-03
     0.031     0.858   0.214875E-03
     0.031     0.866   0.195273E-03
     0.031     0.874   0.177352E-03
     0.031     0.882   0.160443E-03
     0.031     0.890   0.144951E-03
     0.031     0.898   0.130307E-03
     0.031     0.906   0.116841E-03
     0.031     0.913   0.104073E-03
     0.031     0.921   0.922665E-04
     0.031     0.929   0.810217E-04
     0.031     0.937   0.705390E-04
     0.031     0.945   0.604929E-04
     0.031     0.953   0.510244E-04
     0.031     0.961   0.418758E-04
     0.031     0.969   0.331318E-04
     0.031     0.976   0.245975E-04
     0.031     0.984   0.163027E-04
     0.031     0.992   0.811171E-05
     0.031     1.000    0.00000    
     0.039     0.000   0.123370    
     0.039     0.008   0.119701    
     0.039     0.016   0.116108    
     0.039     0.024   0.112588    
     0.039     0.031   0.109141    
     0.039     0.039   0.105765    
     0.039     0.047   0.102462    
     0.039     0.055   0.992267E-01
     0.039     0.063   0.960634E-01
     0.039     0.071   0.929666E-01
     0.039     0.079   0.899406E-01
     0.039     0.087   0.869791E-01
     0.039     0.094   0.840875E-01
     0.039     0.102   0.812586E-01
     0.039     0.110   0.784987E-01
     0.039     0.118   0.757999E-01
     0.039     0.126   0.731692E-01
     0.039     0.134   0.705977E-01
     0.039     0.142   0.680936E-01
     0.039     0.150   0.656471E-01
     0.039     0.157   0.632669E-01
     0.039     0.165   0.609427E-01
     0.039     0.173   0.586840E-01
     0.039     0.181   0.564795E-01
     0.039     0.189   0.543394E-01
     0.039     0.197   0.522519E-01
     0.039     0.205   0.502278E-01
     0.039     0.213   0.482546E-01
     0.039     0.220   0.463435E-01
     0.039     0.228   0.444817E-01
     0.039     0.236   0.426807E-01
     0.039     0.244   0.409272E-01
     0.039     0.252   0.392333E-01
     0.039     0.260   0.375852E-01
     0.039     0.268   0.359950E-01
     0.039     0.276   0.344490E-01
     0.039     0.283   0.329593E-01
     0.039     0.291   0.315120E-01
     0.039     0.299   0.301194E-01
     0.039     0.307   0.287675E-01
     0.039     0.315   0.274684E-01
     0.039     0.323   0.262083E-01
     0.039     0.331   0.249991E-01
     0.039     0.339   0.238272E-01
     0.039     0.346   0.227042E-01
     0.039     0.354   0.216167E-01
     0.039     0.362   0.205762E-01
     0.039     0.370   0.195694E-01
     0.039     0.378   0.186075E-01
     0.039     0.386   0.176776E-01
     0.039     0.394   0.167906E-01
     0.039     0.402   0.159337E-01
     0.039     0.409   0.151176E-01
     0.039     0.417   0.143299E-01
     0.039     0.425   0.135809E-01
     0.039     0.433   0.128586E-01
     0.039     0.441   0.121729E-01
     0.039     0.449   0.115122E-01
     0.039     0.457   0.108860E-01
     0.039     0.465   0.102832E-01
     0.039     0.472   0.971272E-02
     0.039     0.480   0.916412E-02
     0.039     0.488   0.864576E-02
     0.039     0.496   0.814776E-02
     0.039     0.504   0.767796E-02
     0.039     0.512   0.722704E-02
     0.039     0.520   0.680237E-02
     0.039     0.528   0.639515E-02
     0.039     0.535   0.601225E-02
     0.039     0.543   0.564545E-02
     0.039     0.551   0.530114E-02
     0.039     0.559   0.497162E-02
     0.039     0.567   0.466282E-02
     0.039     0.575   0.436758E-02
     0.039     0.583   0.409136E-02
     0.039     0.591   0.382753E-02
     0.039     0.598   0.358111E-02
     0.039     0.606   0.334598E-02
     0.039     0.614   0.312675E-02
     0.039     0.622   0.291776E-02
     0.039     0.630   0.272323E-02
     0.039     0.638   0.253798E-02
     0.039     0.646   0.236583E-02
     0.039     0.654   0.220207E-02
     0.039     0.661   0.205014E-02
     0.039     0.669   0.190576E-02
     0.039     0.677   0.177204E-02
     0.039     0.685   0.164509E-02
     0.039     0.693   0.152772E-02
     0.039     0.701   0.141639E-02
     0.039     0.709   0.131364E-02
     0.039     0.717   0.121628E-02
     0.039     0.724   0.112656E-02
     0.039     0.732   0.104163E-02
     0.039     0.740   0.963497E-03
     0.039     0.748   0.889607E-03
     0.039     0.756   0.821735E-03
     0.039     0.764   0.757607E-03
     0.039     0.772   0.698788E-03
     0.039     0.780   0.643262E-03
     0.039     0.787   0.592404E-03
     0.039     0.795   0.544430E-03
     0.039     0.803   0.500541E-03
     0.039     0.811   0.459168E-03
     0.039     0.819   0.421356E-03
     0.039     0.827   0.385727E-03
     0.039     0.835   0.353185E-03
     0.039     0.843   0.322528E-03
     0.039     0.850   0.294531E-03
     0.039     0.858   0.268151E-03
     0.039     0.866   0.244048E-03
     0.039     0.874   0.221320E-03
     0.039     0.882   0.200522E-03
     0.039     0.890   0.180883E-03
     0.039     0.898   0.162861E-03
     0.039     0.906   0.145802E-03
     0.039     0.913   0.130076E-03
     0.039     0.921   0.115134E-03
     0.039     0.929   0.101267E-03
     0.039     0.937   0.880205E-04
     0.039     0.945   0.756092E-04
     0.039     0.953   0.636689E-04
     0.039     0.961   0.523406E-04
     0.039     0.969   0.413420E-04
     0.039     0.976   0.307446E-04
     0.039     0.984   0.203425E-04
     0.039     0.992   0.101389E-04
     0.039     1.000    0.00000    
     0.047     0.000   0.147877    
     0.047     0.008   0.143481    
     0.047     0.016   0.139173    
     0.047     0.024   0.134954    
     0.047     0.031   0.130822    
     0.047     0.039   0.126776    
     0.047     0.047   0.122815    
     0.047     0.055   0.118940    
     0.047     0.063   0.115145    
     0.047     0.071   0.111436    
     0.047     0.079   0.107806    
     0.047     0.087   0.104260    
     0.047     0.094   0.100790    
     0.047     0.102   0.974030E-01
     0.047     0.110   0.940905E-01
     0.047     0.118   0.908601E-01
     0.047     0.126   0.877019E-01
     0.047     0.134   0.846248E-01
     0.047     0.142   0.816178E-01
     0.047     0.150   0.786910E-01
     0.047     0.157   0.758321E-01
     0.047     0.165   0.730523E-01
     0.047     0.173   0.703385E-01
     0.047     0.181   0.677026E-01
     0.047     0.189   0.651307E-01
     0.047     0.197   0.626354E-01
     0.047     0.205   0.602021E-01
     0.047     0.213   0.578441E-01
     0.047     0.220   0.555461E-01
     0.047     0.228   0.533218E-01
     0.047     0.236   0.511555E-01
     0.047     0.244   0.490614E-01
     0.047     0.252   0.470232E-01
     0.047     0.260   0.450554E-01
     0.047     0.268   0.431416E-01
     0.047     0.276   0.412963E-01
     0.047     0.283   0.395028E-01
     0.047     0.291   0.377759E-01
     0.047     0.299   0.360988E-01
     0.047     0.307   0.344862E-01
     0.047     0.315   0.329212E-01
     0.047     0.323   0.314185E-01
     0.047     0.331   0.299614E-01
     0.047     0.339   0.285643E-01
     0.047     0.346   0.272107E-01
     0.047     0.354   0.259147E-01
     0.047     0.362   0.246600E-01
     0.047     0.370   0.234606E-01
     0.047     0.378   0.223004E-01
     0.047     0.386   0.211929E-01
     0.047     0.394   0.201225E-01
     0.047     0.402   0.191024E-01
     0.047     0.409   0.181173E-01
     0.047     0.417   0.171799E-01
     0.047     0.425   0.162755E-01
     0.047     0.433   0.154162E-01
     0.047     0.441   0.145880E-01
     0.047     0.449   0.138022E-01
     0.047     0.457   0.130456E-01
     0.047     0.465   0.123289E-01
     0.047     0.472   0.116394E-01
     0.047     0.480   0.109873E-01
     0.047     0.488   0.103606E-01