Title="Temperature Data"
Variables="X","Y","T"
 
Zone I=   128, J=   128, F=POINT
     0.000     0.000    0.00000    
     0.000     0.008    0.00000    
     0.000     0.016    0.00000    
     0.000     0.024    0.00000    
     0.000     0.031    0.00000    
     0.000     0.039    0.00000    
     0.000     0.047    0.00000    
     0.000     0.055    0.00000    
     0.000     0.063    0.00000    
     0.000     0.071    0.00000    
     0.000     0.079    0.00000    
     0.000     0.087    0.00000    
     0.000     0.094    0.00000    
     0.000     0.102    0.00000    
     0.000     0.110    0.00000    
     0.000     0.118    0.00000    
     0.000     0.126    0.00000    
     0.000     0.134    0.00000    
     0.000     0.142    0.00000    
     0.000     0.150    0.00000    
     0.000     0.157    0.00000    
     0.000     0.165    0.00000    
     0.000     0.173    0.00000    
     0.000     0.181    0.00000    
     0.000     0.189    0.00000    
     0.000     0.197    0.00000    
     0.000     0.205    0.00000    
     0.000     0.213    0.00000    
     0.000     0.220    0.00000    
     0.000     0.228    0.00000    
     0.000     0.236    0.00000    
     0.000     0.244    0.00000    
     0.000     0.252    0.00000    
     0.000     0.260    0.00000    
     0.000     0.268    0.00000    
     0.000     0.276    0.00000    
     0.000     0.283    0.00000    
     0.000     0.291    0.00000    
     0.000     0.299    0.00000    
     0.000     0.307    0.00000    
     0.000     0.315    0.00000    
     0.000     0.323    0.00000    
     0.000     0.331    0.00000    
     0.000     0.339    0.00000    
     0.000     0.346    0.00000    
     0.000     0.354    0.00000    
     0.000     0.362    0.00000    
     0.000     0.370    0.00000    
     0.000     0.378    0.00000    
     0.000     0.386    0.00000    
     0.000     0.394    0.00000    
     0.000     0.402    0.00000    
     0.000     0.409    0.00000    
     0.000     0.417    0.00000    
     0.000     0.425    0.00000    
     0.000     0.433    0.00000    
     0.000     0.441    0.00000    
     0.000     0.449    0.00000    
     0.000     0.457    0.00000    
     0.000     0.465    0.00000    
     0.000     0.472    0.00000    
     0.000     0.480    0.00000    
     0.000     0.488    0.00000    
     0.000     0.496    0.00000    
     0.000     0.504    0.00000    
     0.000     0.512    0.00000    
     0.000     0.520    0.00000    
     0.000     0.528    0.00000    
     0.000     0.535    0.00000    
     0.000     0.543    0.00000    
     0.000     0.551    0.00000    
     0.000     0.559    0.00000    
     0.000     0.567    0.00000    
     0.000     0.575    0.00000    
     0.000     0.583    0.00000    
     0.000     0.591    0.00000    
     0.000     0.598    0.00000    
     0.000     0.606    0.00000    
     0.000     0.614    0.00000    
     0.000     0.622    0.00000    
     0.000     0.630    0.00000    
     0.000     0.638    0.00000    
     0.000     0.646    0.00000    
     0.000     0.654    0.00000    
     0.000     0.661    0.00000    
     0.000     0.669    0.00000    
     0.000     0.677    0.00000    
     0.000     0.685    0.00000    
     0.000     0.693    0.00000    
     0.000     0.701    0.00000    
     0.000     0.709    0.00000    
     0.000     0.717    0.00000    
     0.000     0.724    0.00000    
     0.000     0.732    0.00000    
     0.000     0.740    0.00000    
     0.000     0.748    0.00000    
     0.000     0.756    0.00000    
     0.000     0.764    0.00000    
     0.000     0.772    0.00000    
     0.000     0.780    0.00000    
     0.000     0.787    0.00000    
     0.000     0.795    0.00000    
     0.000     0.803    0.00000    
     0.000     0.811    0.00000    
     0.000     0.819    0.00000    
     0.000     0.827    0.00000    
     0.000     0.835    0.00000    
     0.000     0.843    0.00000    
     0.000     0.850    0.00000    
     0.000     0.858    0.00000    
     0.000     0.866    0.00000    
     0.000     0.874    0.00000    
     0.000     0.882    0.00000    
     0.000     0.890    0.00000    
     0.000     0.898    0.00000    
     0.000     0.906    0.00000    
     0.000     0.913    0.00000    
     0.000     0.921    0.00000    
     0.000     0.929    0.00000    
     0.000     0.937    0.00000    
     0.000     0.945    0.00000    
     0.000     0.953    0.00000    
     0.000     0.961    0.00000    
     0.000     0.969    0.00000    
     0.000     0.976    0.00000    
     0.000     0.984    0.00000    
     0.000     0.992    0.00000    
     0.000     1.000    0.00000    
     0.008     0.000   0.247344E-01
     0.008     0.008   0.240999E-01
     0.008     0.016   0.234802E-01
     0.008     0.024   0.228750E-01
     0.008     0.031   0.222838E-01
     0.008     0.039   0.217065E-01
     0.008     0.047   0.211426E-01
     0.008     0.055   0.205918E-01
     0.008     0.063   0.200540E-01
     0.008     0.071   0.195287E-01
     0.008     0.079   0.190157E-01
     0.008     0.087   0.185146E-01
     0.008     0.094   0.180254E-01
     0.008     0.102   0.175476E-01
     0.008     0.110   0.170810E-01
     0.008     0.118   0.166254E-01
     0.008     0.126   0.161806E-01
     0.008     0.134   0.157461E-01
     0.008     0.142   0.153220E-01
     0.008     0.150   0.149078E-01
     0.008     0.157   0.145035E-01
     0.008     0.165   0.141087E-01
     0.008     0.173   0.137234E-01
     0.008     0.181   0.133472E-01
     0.008     0.189   0.129800E-01
     0.008     0.197   0.126215E-01
     0.008     0.205   0.122717E-01
     0.008     0.213   0.119302E-01
     0.008     0.220   0.115970E-01
     0.008     0.228   0.112717E-01
     0.008     0.236   0.109544E-01
     0.008     0.244   0.106447E-01
     0.008     0.252   0.103426E-01
     0.008     0.260   0.100478E-01
     0.008     0.268   0.976028E-02
     0.008     0.276   0.947967E-02
     0.008     0.283   0.920613E-02
     0.008     0.291   0.893917E-02
     0.008     0.299   0.867899E-02
     0.008     0.307   0.842509E-02
     0.008     0.315   0.817770E-02
     0.008     0.323   0.793631E-02
     0.008     0.331   0.770116E-02
     0.008     0.339   0.747174E-02
     0.008     0.346   0.724832E-02
     0.008     0.354   0.703036E-02
     0.008     0.362   0.681816E-02
     0.008     0.370   0.661118E-02
     0.008     0.378   0.640971E-02
     0.008     0.386   0.621323E-02
     0.008     0.394   0.602204E-02
     0.008     0.402   0.583561E-02
     0.008     0.409   0.565425E-02
     0.008     0.417   0.547744E-02
     0.008     0.425   0.530548E-02
     0.008     0.433   0.513786E-02
     0.008     0.441   0.497490E-02
     0.008     0.449   0.481606E-02
     0.008     0.457   0.466169E-02
     0.008     0.465   0.451126E-02
     0.008     0.472   0.436510E-02
     0.008     0.480   0.422269E-02
     0.008     0.488   0.408438E-02
     0.008     0.496   0.394963E-02
     0.008     0.504   0.381879E-02
     0.008     0.512   0.369136E-02
     0.008     0.520   0.356766E-02
     0.008     0.528   0.344720E-02
     0.008     0.535   0.333030E-02
     0.008     0.543   0.321649E-02
     0.008     0.551   0.310607E-02
     0.008     0.559   0.299858E-02
     0.008     0.567   0.289433E-02
     0.008     0.575   0.279286E-02
     0.008     0.583   0.269448E-02
     0.008     0.591   0.259873E-02
     0.008     0.598   0.250592E-02
     0.008     0.606   0.241560E-02
     0.008     0.614   0.232808E-02
     0.008     0.622   0.224291E-02
     0.008     0.630   0.216040E-02
     0.008     0.638   0.208012E-02
     0.008     0.646   0.200235E-02
     0.008     0.654   0.192668E-02
     0.008     0.661   0.185339E-02
     0.008     0.669   0.178209E-02
     0.008     0.677   0.171303E-02
     0.008     0.685   0.164583E-02
     0.008     0.693   0.158076E-02
     0.008     0.701   0.151743E-02
     0.008     0.709   0.145610E-02
     0.008     0.717   0.139641E-02
     0.008     0.724   0.133859E-02
     0.008     0.732   0.128230E-02
     0.008     0.740   0.122777E-02
     0.008     0.748   0.117466E-02
     0.008     0.756   0.112319E-02
     0.008     0.764   0.107304E-02
     0.008     0.772   0.102442E-02
     0.008     0.780   0.977021E-03
     0.008     0.787   0.931033E-03
     0.008     0.795   0.886177E-03
     0.008     0.803   0.842620E-03
     0.008     0.811   0.800102E-03
     0.008     0.819   0.758774E-03
     0.008     0.827   0.718393E-03
     0.008     0.835   0.679097E-03
     0.008     0.843   0.640659E-03
     0.008     0.850   0.603202E-03
     0.008     0.858   0.566515E-03
     0.008     0.866   0.530705E-03
     0.008     0.874   0.495581E-03
     0.008     0.882   0.461233E-03
     0.008     0.890   0.427486E-03
     0.008     0.898   0.394415E-03
     0.008     0.906   0.361862E-03
     0.008     0.913   0.329887E-03
     0.008     0.921   0.298348E-03
     0.008     0.929   0.267289E-03
     0.008     0.937   0.236585E-03
     0.008     0.945   0.206265E-03
     0.008     0.953   0.176220E-03
     0.008     0.961   0.146462E-03
     0.008     0.969   0.116900E-03
     0.008     0.976   0.875296E-04
     0.008     0.984   0.582764E-04
     0.008     0.992   0.291186E-04
     0.008     1.000    0.00000    
     0.016     0.000   0.494537E-01
     0.016     0.008   0.481851E-01
     0.016     0.016   0.469461E-01
     0.016     0.024   0.457360E-01
     0.016     0.031   0.445540E-01
     0.016     0.039   0.433997E-01
     0.016     0.047   0.422722E-01
     0.016     0.055   0.411711E-01
     0.016     0.063   0.400956E-01
     0.016     0.071   0.390454E-01
     0.016     0.079   0.380197E-01
     0.016     0.087   0.370180E-01
     0.016     0.094   0.360397E-01
     0.016     0.102   0.350845E-01
     0.016     0.110   0.341516E-01
     0.016     0.118   0.332407E-01
     0.016     0.126   0.323511E-01
     0.016     0.134   0.314827E-01
     0.016     0.142   0.306345E-01
     0.016     0.150   0.298066E-01
     0.016     0.157   0.289981E-01
     0.016     0.165   0.282090E-01
     0.016     0.173   0.274384E-01
     0.016     0.181   0.266863E-01
     0.016     0.189   0.259520E-01
     0.016     0.197   0.252355E-01
     0.016     0.205   0.245358E-01
     0.016     0.213   0.238532E-01
     0.016     0.220   0.231868E-01
     0.016     0.228   0.225367E-01
     0.016     0.236   0.219020E-01
     0.016     0.244   0.212830E-01
     0.016     0.252   0.206787E-01
     0.016     0.260   0.200895E-01
     0.016     0.268   0.195144E-01
     0.016     0.276   0.189537E-01
     0.016     0.283   0.184065E-01
     0.016     0.291   0.178731E-01
     0.016     0.299   0.173525E-01
     0.016     0.307   0.168452E-01
     0.016     0.315   0.163502E-01
     0.016     0.323   0.158680E-01
     0.016     0.331   0.153974E-01
     0.016     0.339   0.149391E-01
     0.016     0.346   0.144920E-01
     0.016     0.354   0.140566E-01
     0.016     0.362   0.136319E-01
     0.016     0.370   0.132185E-01
     0.016     0.378   0.128153E-01
     0.016     0.386   0.124229E-01
     0.016     0.394   0.120402E-01
     0.016     0.402   0.116679E-01
     0.016     0.409   0.113048E-01
     0.016     0.417   0.109517E-01
     0.016     0.425   0.106075E-01
     0.016     0.433   0.102728E-01
     0.016     0.441   0.994653E-02
     0.016     0.449   0.962939E-02
     0.016     0.457   0.932032E-02
     0.016     0.465   0.901998E-02
     0.016     0.472   0.872732E-02
     0.016     0.480   0.844302E-02
     0.016     0.488   0.816604E-02
     0.016     0.496   0.789705E-02
     0.016     0.504   0.763504E-02
     0.016     0.512   0.738067E-02
     0.016     0.520   0.713293E-02
     0.016     0.528   0.689249E-02
     0.016     0.535   0.665836E-02
     0.016     0.543   0.643121E-02
     0.016     0.551   0.621004E-02
     0.016     0.559   0.599552E-02
     0.016     0.567   0.578670E-02
     0.016     0.575   0.558421E-02
     0.016     0.583   0.538712E-02
     0.016     0.591   0.519606E-02
     0.016     0.598   0.501012E-02
     0.016     0.606   0.482991E-02
     0.016     0.614   0.465455E-02
     0.016     0.622   0.448463E-02
     0.016     0.630   0.431930E-02
     0.016     0.638   0.415913E-02
     0.016     0.646   0.400329E-02
     0.016     0.654   0.385235E-02
     0.016     0.661   0.370548E-02
     0.016     0.669   0.356324E-02
     0.016     0.677   0.342485E-02
     0.016     0.685   0.329082E-02
     0.016     0.693   0.316039E-02
     0.016     0.701   0.303409E-02
     0.016     0.709   0.291117E-02
     0.016     0.717   0.279211E-02
     0.016     0.724   0.267622E-02
     0.016     0.732   0.256396E-02
     0.016     0.740   0.245465E-02
     0.016     0.748   0.234873E-02
     0.016     0.756   0.224556E-02
     0.016     0.764   0.214555E-02
     0.016     0.772   0.204809E-02
     0.016     0.780   0.195356E-02
     0.016     0.787   0.186139E-02
     0.016     0.795   0.177192E-02
     0.016     0.803   0.168462E-02
     0.016     0.811   0.159981E-02
     0.016     0.819   0.151699E-02
     0.016     0.827   0.143644E-02
     0.016     0.835   0.135769E-02
     0.016     0.843   0.128101E-02
     0.016     0.850   0.120596E-02
     0.016     0.858   0.113276E-02
     0.016     0.866   0.106101E-02
     0.016     0.874   0.990925E-03
     0.016     0.882   0.922121E-03
     0.016     0.890   0.854768E-03
     0.016     0.898   0.788534E-03
     0.016     0.906   0.723553E-03
     0.016     0.913   0.659525E-03
     0.016     0.921   0.596555E-03
     0.016     0.929   0.534376E-03
     0.016     0.937   0.473060E-03
     0.016     0.945   0.412374E-03
     0.016     0.953   0.352358E-03
     0.016     0.961   0.292813E-03
     0.016     0.969   0.233746E-03
     0.016     0.976   0.174993E-03
     0.016     0.984   0.116526E-03
     0.016     0.992   0.582152E-04
     0.016     1.000    0.00000    
     0.024     0.000   0.741428E-01
     0.024     0.008   0.722408E-01
     0.024     0.016   0.703833E-01
     0.024     0.024   0.685689E-01
     0.024     0.031   0.667970E-01
     0.024     0.039   0.650662E-01
     0.024     0.047   0.633760E-01
     0.024     0.055   0.617251E-01
     0.024     0.063   0.601129E-01
     0.024     0.071   0.585382E-01
     0.024     0.079   0.570005E-01
     0.024     0.087   0.554986E-01
     0.024     0.094   0.540321E-01
     0.024     0.102   0.525998E-01
     0.024     0.110   0.512013E-01
     0.024     0.118   0.498355E-01
     0.024     0.126   0.485021E-01
     0.024     0.134   0.471998E-01
     0.024     0.142   0.459285E-01
     0.024     0.150   0.446870E-01
     0.024     0.157   0.434752E-01
     0.024     0.165   0.422917E-01
     0.024     0.173   0.411368E-01
     0.024     0.181   0.400089E-01
     0.024     0.189   0.389083E-01
     0.024     0.197   0.378337E-01
     0.024     0.205   0.367851E-01
     0.024     0.213   0.357613E-01
     0.024     0.220   0.347626E-01
     0.024     0.228   0.337875E-01
     0.024     0.236   0.328365E-01
     0.024     0.244   0.319080E-01
     0.024     0.252   0.310026E-01
     0.024     0.260   0.301187E-01
     0.024     0.268   0.292569E-01
     0.024     0.276   0.284158E-01
     0.024     0.283   0.275959E-01
     0.024     0.291   0.267956E-01
     0.024     0.299   0.260157E-01
     0.024     0.307   0.252546E-01
     0.024     0.315   0.245131E-01
     0.024     0.323   0.237895E-01
     0.024     0.331   0.230846E-01
     0.024     0.339   0.223969E-01
     0.024     0.346   0.217272E-01
     0.024     0.354   0.210739E-01
     0.024     0.362   0.204378E-01
     0.024     0.370   0.198173E-01
     0.024     0.378   0.192134E-01
     0.024     0.386   0.186245E-01
     0.024     0.394   0.180514E-01
     0.024     0.402   0.174926E-01
     0.024     0.409   0.169489E-01
     0.024     0.417   0.164189E-01
     0.024     0.425   0.159035E-01
     0.024     0.433   0.154010E-01
     0.024     0.441   0.149125E-01
     0.024     0.449   0.144364E-01
     0.024     0.457   0.139737E-01
     0.024     0.465   0.135227E-01
     0.024     0.472   0.130846E-01
     0.024     0.480   0.126578E-01
     0.024     0.488   0.122431E-01
     0.024     0.496   0.118392E-01
     0.024     0.504   0.114470E-01
     0.024     0.512   0.110650E-01
     0.024     0.520   0.106943E-01
     0.024     0.528   0.103332E-01
     0.024     0.535   0.998276E-02
     0.024     0.543   0.964158E-02
     0.024     0.551   0.931061E-02
     0.024     0.559   0.898840E-02
     0.024     0.567   0.867592E-02
     0.024     0.575   0.837175E-02
     0.024     0.583   0.807685E-02
     0.024     0.591   0.778983E-02
     0.024     0.598   0.751163E-02
     0.024     0.606   0.724089E-02
     0.024     0.614   0.697854E-02
     0.024     0.622   0.672325E-02
     0.024     0.630   0.647591E-02
     0.024     0.638   0.623526E-02
     0.024     0.646   0.600214E-02
     0.024     0.654   0.577532E-02
     0.024     0.661   0.555564E-02
     0.024     0.669   0.534189E-02
     0.024     0.677   0.513489E-02
     0.024     0.685   0.493347E-02
     0.024     0.693   0.473841E-02
     0.024     0.701   0.454858E-02
     0.024     0.709   0.436474E-02
     0.024     0.717   0.418581E-02
     0.024     0.724   0.401250E-02
     0.024     0.732   0.384377E-02
     0.024     0.740   0.368030E-02
     0.024     0.748   0.352111E-02
     0.024     0.756   0.336682E-02
     0.024     0.764   0.321650E-02
     0.024     0.772   0.307075E-02
     0.024     0.780   0.292867E-02
     0.024     0.787   0.279082E-02
     0.024     0.795   0.265636E-02
     0.024     0.803   0.252580E-02
     0.024     0.811   0.239835E-02
     0.024     0.819   0.227446E-02
     0.024     0.827   0.215342E-02
     0.024     0.835   0.203563E-02
     0.024     0.843   0.192041E-02
     0.024     0.850   0.180813E-02
     0.024     0.858   0.169816E-02
     0.024     0.866   0.159082E-02
     0.024     0.874   0.148553E-02
     0.024     0.882   0.138257E-02
     0.024     0.890   0.128141E-02
     0.024     0.898   0.118228E-02
     0.024     0.906   0.108470E-02
     0.024     0.913   0.988853E-03
     0.024     0.921   0.894314E-03
     0.024     0.929   0.801213E-03
     0.024     0.937   0.709177E-03
     0.024     0.945   0.618290E-03
     0.024     0.953   0.528229E-03
     0.024     0.961   0.439028E-03
     0.024     0.969   0.350415E-03
     0.024     0.976   0.262375E-03
     0.024     0.984   0.174687E-03
     0.024     0.992   0.872846E-04
     0.024     1.000    0.00000    
     0.031     0.000   0.987864E-01
     0.031     0.008   0.962524E-01
     0.031     0.016   0.937773E-01
     0.031     0.024   0.913600E-01
     0.031     0.031   0.889990E-01
     0.031     0.039   0.866931E-01
     0.031     0.047   0.844409E-01
     0.031     0.055   0.822414E-01
     0.031     0.063   0.800932E-01
     0.031     0.071   0.779953E-01
     0.031     0.079   0.759463E-01
     0.031     0.087   0.739454E-01
     0.031     0.094   0.719912E-01
     0.031     0.102   0.700831E-01
     0.031     0.110   0.682195E-01
     0.031     0.118   0.664001E-01
     0.031     0.126   0.646231E-01
     0.031     0.134   0.628883E-01
     0.031     0.142   0.611941E-01
     0.031     0.150   0.595403E-01
     0.031     0.157   0.579253E-01
     0.031     0.165   0.563489E-01
     0.031     0.173   0.548096E-01
     0.031     0.181   0.533074E-01
     0.031     0.189   0.518405E-01
     0.031     0.197   0.504092E-01
     0.031     0.205   0.490115E-01
     0.031     0.213   0.476481E-01
     0.031     0.220   0.463168E-01
     0.031     0.228   0.450182E-01
     0.031     0.236   0.437504E-01
     0.031     0.244   0.425139E-01
     0.031     0.252   0.413069E-01
     0.031     0.260   0.401299E-01
     0.031     0.268   0.389811E-01
     0.031     0.276   0.378610E-01
     0.031     0.283   0.367679E-01
     0.031     0.291   0.357024E-01
     0.031     0.299   0.346625E-01
     0.031     0.307   0.336492E-01
     0.031     0.315   0.326604E-01
     0.031     0.323   0.316971E-01
     0.031     0.331   0.307571E-01
     0.031     0.339   0.298417E-01
     0.031     0.346   0.289485E-01
     0.031     0.354   0.280789E-01
     0.031     0.362   0.272305E-01
     0.031     0.370   0.264047E-01
     0.031     0.378   0.255992E-01
     0.031     0.386   0.248153E-01
     0.031     0.394   0.240509E-01
     0.031     0.402   0.233072E-01
     0.031     0.409   0.225820E-01
     0.031     0.417   0.218767E-01
     0.031     0.425   0.211890E-01
     0.031     0.433   0.205204E-01
     0.031     0.441   0.198687E-01
     0.031     0.449   0.192352E-01
     0.031     0.457   0.186178E-01
     0.031     0.465   0.180179E-01
     0.031     0.472   0.174333E-01
     0.031     0.480   0.168654E-01
     0.031     0.488   0.163121E-01
     0.031     0.496   0.157748E-01
     0.031     0.504   0.152514E-01
     0.031     0.512   0.147433E-01
     0.031     0.520   0.142484E-01
     0.031     0.528   0.137681E-01
     0.031     0.535   0.133004E-01
     0.031     0.543   0.128467E-01
     0.031     0.551   0.124049E-01
     0.031     0.559   0.119764E-01
     0.031     0.567   0.115592E-01
     0.031     0.575   0.111548E-01
     0.031     0.583   0.107611E-01
     0.031     0.591   0.103794E-01
     0.031     0.598   0.100080E-01
     0.031     0.606   0.964800E-02
     0.031     0.614   0.929771E-02
     0.031     0.622   0.895829E-02
     0.031     0.630   0.862803E-02
     0.031     0.638   0.830809E-02
     0.031     0.646   0.799679E-02
     0.031     0.654   0.769527E-02
     0.031     0.661   0.740190E-02
     0.031     0.669   0.711777E-02
     0.031     0.677   0.684131E-02
     0.031     0.685   0.657358E-02
     0.031     0.693   0.631305E-02
     0.031     0.701   0.606075E-02
     0.031     0.709   0.581521E-02
     0.031     0.717   0.557739E-02
     0.031     0.724   0.534589E-02
     0.031     0.732   0.512164E-02
     0.031     0.740   0.490329E-02
     0.031     0.748   0.469171E-02
     0.031     0.756   0.448563E-02
     0.031     0.764   0.428585E-02
     0.031     0.772   0.409117E-02
     0.031     0.780   0.390234E-02
     0.031     0.787   0.371822E-02
     0.031     0.795   0.353950E-02
     0.031     0.803   0.336512E-02
     0.031     0.811   0.319571E-02
     0.031     0.819   0.303026E-02
     0.031     0.827   0.286936E-02
     0.031     0.835   0.271206E-02
     0.031     0.843   0.255888E-02
     0.031     0.850   0.240896E-02
     0.031     0.858   0.226274E-02
     0.031     0.866   0.211943E-02
     0.031     0.874   0.197943E-02
     0.031     0.882   0.184198E-02
     0.031     0.890   0.170744E-02
     0.031     0.898   0.157514E-02
     0.031     0.906   0.144534E-02
     0.031     0.913   0.131744E-02
     0.031     0.921   0.119165E-02
     0.031     0.929   0.106745E-02
     0.031     0.937   0.944962E-03
     0.031     0.945   0.823739E-03
     0.031     0.953   0.703854E-03
     0.031     0.961   0.584910E-03
     0.031     0.969   0.466920E-03
     0.031     0.976   0.349558E-03
     0.031     0.984   0.232766E-03
     0.031     0.992   0.116288E-03
     0.031     1.000    0.00000    
     0.039     0.000   0.123370    
     0.039     0.008   0.120205    
     0.039     0.016   0.117114    
     0.039     0.024   0.114095    
     0.039     0.031   0.111147    
     0.039     0.039   0.108267    
     0.039     0.047   0.105454    
     0.039     0.055   0.102707    
     0.039     0.063   0.100025    
     0.039     0.071   0.974045E-01
     0.039     0.079   0.948458E-01
     0.039     0.087   0.923468E-01
     0.039     0.094   0.899066E-01
     0.039     0.102   0.875233E-01
     0.039     0.110   0.851963E-01
     0.039     0.118   0.829236E-01
     0.039     0.126   0.807049E-01
     0.039     0.134   0.785379E-01
     0.039     0.142   0.764226E-01
     0.039     0.150   0.743568E-01
     0.039     0.157   0.723404E-01
     0.039     0.165   0.703712E-01
     0.039     0.173   0.684494E-01
     0.039     0.181   0.665727E-01
     0.039     0.189   0.647414E-01
     0.039     0.197   0.629532E-01
     0.039     0.205   0.612085E-01
     0.039     0.213   0.595050E-01
     0.039     0.220   0.578432E-01
     0.039     0.228   0.562207E-01
     0.039     0.236   0.546382E-01
     0.039     0.244   0.530932E-01
     0.039     0.252   0.515866E-01
     0.039     0.260   0.501159E-01
     0.039     0.268   0.486820E-01
     0.039     0.276   0.472824E-01
     0.039     0.283   0.459181E-01
     0.039     0.291   0.445865E-01
     0.039     0.299   0.432888E-01
     0.039     0.307   0.420224E-01
     0.039     0.315   0.407885E-01
     0.039     0.323   0.395845E-01
     0.039     0.331   0.384116E-01
     0.039     0.339   0.372673E-01
     0.039     0.346   0.361529E-01
     0.039     0.354   0.350658E-01
     0.039     0.362   0.340074E-01
     0.039     0.370   0.329750E-01
     0.039     0.378   0.319702E-01
     0.039     0.386   0.309902E-01
     0.039     0.394   0.300366E-01
     0.039     0.402   0.291067E-01
     0.039     0.409   0.282021E-01
     0.039     0.417   0.273202E-01
     0.039     0.425   0.264625E-01
     0.039     0.433   0.256265E-01
     0.039     0.441   0.248136E-01
     0.039     0.449   0.240214E-01
     0.039     0.457   0.232515E-01
     0.039     0.465   0.225011E-01
     0.039     0.472   0.217721E-01
     0.039     0.480   0.210618E-01
     0.039     0.488   0.203719E-01
     0.039     0.496   0.196998E-01
     0.039     0.504   0.190473E-01
     0.039     0.512   0.184117E-01
     0.039     0.520   0.177947E-01
     0.039     0.528   0.171938E-01
     0.039     0.535   0.166108E-01
     0.039     0.543   0.160431E-01
     0.039     0.551   0.154924E-01
     0.039     0.559   0.149562E-01
     0.039     0.567   0.144363E-01
     0.039     0.575   0.139301E-01
     0.039     0.583   0.134394E-01
     0.039     0.591   0.129619E-01
     0.039     0.598   0.124989E-01
     0.039     0.606   0.120485E-01
     0.039     0.614   0.116119E-01
     0.039     0.622   0.111871E-01
     0.039     0.630   0.107756E-01
     0.039     0.638   0.103751E-01
     0.039     0.646   0.998724E-02
     0.039     0.654   0.960983E-02
     0.039     0.661   0.924429E-02
     0.039     0.669   0.888863E-02
     0.039     0.677   0.854419E-02
     0.039     0.685   0.820903E-02
     0.039     0.693   0.788446E-02
     0.039     0.701   0.756860E-02
     0.039     0.709   0.726270E-02
     0.039     0.717   0.696497E-02
     0.039     0.724   0.667658E-02
     0.039     0.732   0.639583E-02
     0.039     0.740   0.612382E-02
     0.039     0.748   0.585893E-02
     0.039     0.756   0.560220E-02
     0.039     0.764   0.535209E-02
     0.039     0.772   0.510956E-02
     0.039     0.780   0.487316E-02
     0.039     0.787   0.464378E-02
     0.039     0.795   0.442005E-02
     0.039     0.803   0.420280E-02
     0.039     0.811   0.399072E-02
     0.039     0.819   0.378459E-02
     0.039     0.827   0.358318E-02
     0.039     0.835   0.338718E-02
     0.039     0.843   0.319546E-02
     0.039     0.850   0.300863E-02
     0.039     0.858   0.282564E-02
     0.039     0.866   0.264704E-02
     0.039     0.874   0.247184E-02
     0.039     0.882   0.230052E-02
     0.039     0.890   0.213220E-02
     0.039     0.898   0.196725E-02
     0.039     0.906   0.180488E-02
     0.039     0.913   0.164540E-02
     0.039     0.921   0.148809E-02
     0.039     0.929   0.133318E-02
     0.039     0.937   0.118003E-02
     0.039     0.945   0.102880E-02
     0.039     0.953   0.878946E-03
     0.039     0.961   0.730519E-03
     0.039     0.969   0.583072E-03
     0.039     0.976   0.436577E-03
     0.039     0.984   0.290669E-03
     0.039     0.992   0.145237E-03
     0.039     1.000    0.00000    
     0.047     0.000   0.147877    
     0.047     0.008   0.144084    
     0.047     0.016   0.140379    
     0.047     0.024   0.136760    
     0.047     0.031   0.133226    
     0.047     0.039   0.129774    
     0.047     0.047   0.126403    
     0.047     0.055   0.123111    
     0.047     0.063   0.119895    
     0.047     0.071   0.116754    
     0.047     0.079   0.113687    
     0.047     0.087   0.110692    
     0.047     0.094   0.107767    
     0.047     0.102   0.104910    
     0.047     0.110   0.102121    
     0.047     0.118   0.993969E-01
     0.047     0.126   0.967369E-01
     0.047     0.134   0.941400E-01
     0.047     0.142   0.916039E-01
     0.047     0.150   0.891283E-01
     0.047     0.157   0.867106E-01
     0.047     0.165   0.843510E-01
     0.047     0.173   0.820467E-01
     0.047     0.181   0.797980E-01
     0.047     0.189   0.776021E-01
     0.047     0.197   0.754595E-01
     0.047     0.205   0.733674E-01
     0.047     0.213   0.713263E-01
     0.047     0.220   0.693334E-01
     0.047     0.228   0.673895E-01
     0.047     0.236   0.654917E-01
     0.047     0.244   0.636408E-01
     0.047     0.252   0.618339E-01
     0.047     0.260   0.600721E-01
     0.047     0.268   0.583523E-01
     0.047     0.276   0.566757E-01
     0.047     0.283   0.550393E-01
     0.047     0.291   0.534443E-01
     0.047     0.299   0.518877E-01
     0.047     0.307   0.503709E-01
     0.047     0.315   0.488907E-01
     0.047     0.323   0.474486E-01
     0.047     0.331   0.460416E-01
     0.047     0.339   0.446712E-01
     0.047     0.346   0.433342E-01
     0.047     0.354   0.420324E-01
     0.047     0.362   0.407625E-01
     0.047     0.370   0.395262E-01
     0.047     0.378   0.383205E-01
     0.047     0.386   0.371471E-01
     0.047     0.394   0.360028E-01
     0.047     0.402   0.348894E-01
     0.047     0.409   0.338039E-01
     0.047     0.417   0.327481E-01
     0.047     0.425   0.317187E-01
     0.047     0.433   0.307179E-01
     0.047     0.441   0.297423E-01
     0.047     0.449   0.287940E-01
     0.047     0.457   0.278698E-01
     0.047     0.465   0.269717E-01
     0.047     0.472   0.260966E-01
     0.047     0.480   0.252465E-01
     0.047     0.488   0.244182E-01