Title="Temperature Data"
Variables="X","Y","T"
 
Zone I=   128, J=   128, F=POINT
     0.000     0.000    0.00000    
     0.000     0.008    0.00000    
     0.000     0.016    0.00000    
     0.000     0.024    0.00000    
     0.000     0.031    0.00000    
     0.000     0.039    0.00000    
     0.000     0.047    0.00000    
     0.000     0.055    0.00000    
     0.000     0.063    0.00000    
     0.000     0.071    0.00000    
     0.000     0.079    0.00000    
     0.000     0.087    0.00000    
     0.000     0.094    0.00000    
     0.000     0.102    0.00000    
     0.000     0.110    0.00000    
     0.000     0.118    0.00000    
     0.000     0.126    0.00000    
     0.000     0.134    0.00000    
     0.000     0.142    0.00000    
     0.000     0.150    0.00000    
     0.000     0.157    0.00000    
     0.000     0.165    0.00000    
     0.000     0.173    0.00000    
     0.000     0.181    0.00000    
     0.000     0.189    0.00000    
     0.000     0.197    0.00000    
     0.000     0.205    0.00000    
     0.000     0.213    0.00000    
     0.000     0.220    0.00000    
     0.000     0.228    0.00000    
     0.000     0.236    0.00000    
     0.000     0.244    0.00000    
     0.000     0.252    0.00000    
     0.000     0.260    0.00000    
     0.000     0.268    0.00000    
     0.000     0.276    0.00000    
     0.000     0.283    0.00000    
     0.000     0.291    0.00000    
     0.000     0.299    0.00000    
     0.000     0.307    0.00000    
     0.000     0.315    0.00000    
     0.000     0.323    0.00000    
     0.000     0.331    0.00000    
     0.000     0.339    0.00000    
     0.000     0.346    0.00000    
     0.000     0.354    0.00000    
     0.000     0.362    0.00000    
     0.000     0.370    0.00000    
     0.000     0.378    0.00000    
     0.000     0.386    0.00000    
     0.000     0.394    0.00000    
     0.000     0.402    0.00000    
     0.000     0.409    0.00000    
     0.000     0.417    0.00000    
     0.000     0.425    0.00000    
     0.000     0.433    0.00000    
     0.000     0.441    0.00000    
     0.000     0.449    0.00000    
     0.000     0.457    0.00000    
     0.000     0.465    0.00000    
     0.000     0.472    0.00000    
     0.000     0.480    0.00000    
     0.000     0.488    0.00000    
     0.000     0.496    0.00000    
     0.000     0.504    0.00000    
     0.000     0.512    0.00000    
     0.000     0.520    0.00000    
     0.000     0.528    0.00000    
     0.000     0.535    0.00000    
     0.000     0.543    0.00000    
     0.000     0.551    0.00000    
     0.000     0.559    0.00000    
     0.000     0.567    0.00000    
     0.000     0.575    0.00000    
     0.000     0.583    0.00000    
     0.000     0.591    0.00000    
     0.000     0.598    0.00000    
     0.000     0.606    0.00000    
     0.000     0.614    0.00000    
     0.000     0.622    0.00000    
     0.000     0.630    0.00000    
     0.000     0.638    0.00000    
     0.000     0.646    0.00000    
     0.000     0.654    0.00000    
     0.000     0.661    0.00000    
     0.000     0.669    0.00000    
     0.000     0.677    0.00000    
     0.000     0.685    0.00000    
     0.000     0.693    0.00000    
     0.000     0.701    0.00000    
     0.000     0.709    0.00000    
     0.000     0.717    0.00000    
     0.000     0.724    0.00000    
     0.000     0.732    0.00000    
     0.000     0.740    0.00000    
     0.000     0.748    0.00000    
     0.000     0.756    0.00000    
     0.000     0.764    0.00000    
     0.000     0.772    0.00000    
     0.000     0.780    0.00000    
     0.000     0.787    0.00000    
     0.000     0.795    0.00000    
     0.000     0.803    0.00000    
     0.000     0.811    0.00000    
     0.000     0.819    0.00000    
     0.000     0.827    0.00000    
     0.000     0.835    0.00000    
     0.000     0.843    0.00000    
     0.000     0.850    0.00000    
     0.000     0.858    0.00000    
     0.000     0.866    0.00000    
     0.000     0.874    0.00000    
     0.000     0.882    0.00000    
     0.000     0.890    0.00000    
     0.000     0.898    0.00000    
     0.000     0.906    0.00000    
     0.000     0.913    0.00000    
     0.000     0.921    0.00000    
     0.000     0.929    0.00000    
     0.000     0.937    0.00000    
     0.000     0.945    0.00000    
     0.000     0.953    0.00000    
     0.000     0.961    0.00000    
     0.000     0.969    0.00000    
     0.000     0.976    0.00000    
     0.000     0.984    0.00000    
     0.000     0.992    0.00000    
     0.000     1.000    0.00000    
     0.008     0.000   0.247344E-01
     0.008     0.008   0.240835E-01
     0.008     0.016   0.234474E-01
     0.008     0.024   0.228257E-01
     0.008     0.031   0.222182E-01
     0.008     0.039   0.216245E-01
     0.008     0.047   0.210445E-01
     0.008     0.055   0.204776E-01
     0.008     0.063   0.199238E-01
     0.008     0.071   0.193826E-01
     0.008     0.079   0.188540E-01
     0.008     0.087   0.183374E-01
     0.008     0.094   0.178328E-01
     0.008     0.102   0.173398E-01
     0.008     0.110   0.168583E-01
     0.008     0.118   0.163879E-01
     0.008     0.126   0.159286E-01
     0.008     0.134   0.154799E-01
     0.008     0.142   0.150419E-01
     0.008     0.150   0.146140E-01
     0.008     0.157   0.141964E-01
     0.008     0.165   0.137884E-01
     0.008     0.173   0.133904E-01
     0.008     0.181   0.130016E-01
     0.008     0.189   0.126224E-01
     0.008     0.197   0.122520E-01
     0.008     0.205   0.118909E-01
     0.008     0.213   0.115382E-01
     0.008     0.220   0.111944E-01
     0.008     0.228   0.108588E-01
     0.008     0.236   0.105316E-01
     0.008     0.244   0.102123E-01
     0.008     0.252   0.990115E-02
     0.008     0.260   0.959750E-02
     0.008     0.268   0.930176E-02
     0.008     0.276   0.901319E-02
     0.008     0.283   0.873222E-02
     0.008     0.291   0.845813E-02
     0.008     0.299   0.819137E-02
     0.008     0.307   0.793118E-02
     0.008     0.315   0.767806E-02
     0.008     0.323   0.743123E-02
     0.008     0.331   0.719120E-02
     0.008     0.339   0.695720E-02
     0.008     0.346   0.672974E-02
     0.008     0.354   0.650805E-02
     0.008     0.362   0.629266E-02
     0.008     0.370   0.608278E-02
     0.008     0.378   0.587896E-02
     0.008     0.386   0.568041E-02
     0.008     0.394   0.548769E-02
     0.008     0.402   0.530000E-02
     0.008     0.409   0.511791E-02
     0.008     0.417   0.494064E-02
     0.008     0.425   0.476873E-02
     0.008     0.433   0.460142E-02
     0.008     0.441   0.443926E-02
     0.008     0.449   0.428148E-02
     0.008     0.457   0.412865E-02
     0.008     0.465   0.397999E-02
     0.008     0.472   0.383607E-02
     0.008     0.480   0.369613E-02
     0.008     0.488   0.356072E-02
     0.008     0.496   0.342910E-02
     0.008     0.504   0.330181E-02
     0.008     0.512   0.317812E-02
     0.008     0.520   0.305857E-02
     0.008     0.528   0.294244E-02
     0.008     0.535   0.283026E-02
     0.008     0.543   0.272134E-02
     0.008     0.551   0.261617E-02
     0.008     0.559   0.251409E-02
     0.008     0.567   0.241559E-02
     0.008     0.575   0.232000E-02
     0.008     0.583   0.222783E-02
     0.008     0.591   0.213841E-02
     0.008     0.598   0.205222E-02
     0.008     0.606   0.196865E-02
     0.008     0.614   0.188814E-02
     0.008     0.622   0.181009E-02
     0.008     0.630   0.173494E-02
     0.008     0.638   0.166211E-02
     0.008     0.646   0.159202E-02
     0.008     0.654   0.152411E-02
     0.008     0.661   0.145879E-02
     0.008     0.669   0.139552E-02
     0.008     0.677   0.133468E-02
     0.008     0.685   0.127575E-02
     0.008     0.693   0.121912E-02
     0.008     0.701   0.116428E-02
     0.008     0.709   0.111158E-02
     0.008     0.717   0.106056E-02
     0.008     0.724   0.101154E-02
     0.008     0.732   0.964084E-03
     0.008     0.740   0.918492E-03
     0.008     0.748   0.874350E-03
     0.008     0.756   0.831942E-03
     0.008     0.764   0.790875E-03
     0.008     0.772   0.751415E-03
     0.008     0.780   0.713191E-03
     0.008     0.787   0.676449E-03
     0.008     0.795   0.640842E-03
     0.008     0.803   0.606597E-03
     0.008     0.811   0.573388E-03
     0.008     0.819   0.541423E-03
     0.008     0.827   0.510400E-03
     0.008     0.835   0.480506E-03
     0.008     0.843   0.451462E-03
     0.008     0.850   0.423434E-03
     0.008     0.858   0.396168E-03
     0.008     0.866   0.369807E-03
     0.008     0.874   0.344122E-03
     0.008     0.882   0.319236E-03
     0.008     0.890   0.294941E-03
     0.008     0.898   0.271339E-03
     0.008     0.906   0.248246E-03
     0.008     0.913   0.225743E-03
     0.008     0.921   0.203668E-03
     0.008     0.929   0.182082E-03
     0.008     0.937   0.160844E-03
     0.008     0.945   0.139996E-03
     0.008     0.953   0.119417E-03
     0.008     0.961   0.991292E-04
     0.008     0.969   0.790330E-04
     0.008     0.976   0.591309E-04
     0.008     0.984   0.393433E-04
     0.008     0.992   0.196526E-04
     0.008     1.000    0.00000    
     0.016     0.000   0.494537E-01
     0.016     0.008   0.481522E-01
     0.016     0.016   0.468803E-01
     0.016     0.024   0.456374E-01
     0.016     0.031   0.444228E-01
     0.016     0.039   0.432359E-01
     0.016     0.047   0.420760E-01
     0.016     0.055   0.409428E-01
     0.016     0.063   0.398353E-01
     0.016     0.071   0.387535E-01
     0.016     0.079   0.376963E-01
     0.016     0.087   0.366636E-01
     0.016     0.094   0.356546E-01
     0.016     0.102   0.346691E-01
     0.016     0.110   0.337062E-01
     0.016     0.118   0.327660E-01
     0.016     0.126   0.318474E-01
     0.016     0.134   0.309505E-01
     0.016     0.142   0.300744E-01
     0.016     0.150   0.292192E-01
     0.016     0.157   0.283838E-01
     0.016     0.165   0.275686E-01
     0.016     0.173   0.267723E-01
     0.016     0.181   0.259955E-01
     0.016     0.189   0.252368E-01
     0.016     0.197   0.244968E-01
     0.016     0.205   0.237742E-01
     0.016     0.213   0.230696E-01
     0.016     0.220   0.223817E-01
     0.016     0.228   0.217111E-01
     0.016     0.236   0.210565E-01
     0.016     0.244   0.204186E-01
     0.016     0.252   0.197960E-01
     0.016     0.260   0.191894E-01
     0.016     0.268   0.185975E-01
     0.016     0.276   0.180212E-01
     0.016     0.283   0.174588E-01
     0.016     0.291   0.169114E-01
     0.016     0.299   0.163774E-01
     0.016     0.307   0.158578E-01
     0.016     0.315   0.153511E-01
     0.016     0.323   0.148582E-01
     0.016     0.331   0.143777E-01
     0.016     0.339   0.139105E-01
     0.016     0.346   0.134550E-01
     0.016     0.354   0.130125E-01
     0.016     0.362   0.125811E-01
     0.016     0.370   0.121622E-01
     0.016     0.378   0.117540E-01
     0.016     0.386   0.113577E-01
     0.016     0.394   0.109717E-01
     0.016     0.402   0.105971E-01
     0.016     0.409   0.102324E-01
     0.016     0.417   0.987858E-02
     0.016     0.425   0.953421E-02
     0.016     0.433   0.920035E-02
     0.016     0.441   0.887547E-02
     0.016     0.449   0.856068E-02
     0.016     0.457   0.825444E-02
     0.016     0.465   0.795788E-02
     0.016     0.472   0.766947E-02
     0.016     0.480   0.739032E-02
     0.016     0.488   0.711894E-02
     0.016     0.496   0.685641E-02
     0.016     0.504   0.660128E-02
     0.016     0.512   0.635460E-02
     0.016     0.520   0.611496E-02
     0.016     0.528   0.588339E-02
     0.016     0.535   0.565850E-02
     0.016     0.543   0.544131E-02
     0.016     0.551   0.523045E-02
     0.016     0.559   0.502693E-02
     0.016     0.567   0.482941E-02
     0.016     0.575   0.463887E-02
     0.016     0.583   0.445401E-02
     0.016     0.591   0.427578E-02
     0.016     0.598   0.410293E-02
     0.016     0.606   0.393636E-02
     0.016     0.614   0.377486E-02
     0.016     0.622   0.361933E-02
     0.016     0.630   0.346857E-02
     0.016     0.638   0.332345E-02
     0.016     0.646   0.318283E-02
     0.016     0.654   0.304753E-02
     0.016     0.661   0.291646E-02
     0.016     0.669   0.279040E-02
     0.016     0.677   0.266832E-02
     0.016     0.685   0.255094E-02
     0.016     0.693   0.243728E-02
     0.016     0.701   0.232805E-02
     0.016     0.709   0.222229E-02
     0.016     0.717   0.212066E-02
     0.016     0.724   0.202228E-02
     0.016     0.732   0.192776E-02
     0.016     0.740   0.183625E-02
     0.016     0.748   0.174833E-02
     0.016     0.756   0.166321E-02
     0.016     0.764   0.158142E-02
     0.016     0.772   0.150222E-02
     0.016     0.780   0.142609E-02
     0.016     0.787   0.135234E-02
     0.016     0.795   0.128143E-02
     0.016     0.803   0.121269E-02
     0.016     0.811   0.114655E-02
     0.016     0.819   0.108239E-02
     0.016     0.827   0.102060E-02
     0.016     0.835   0.960607E-03
     0.016     0.843   0.902752E-03
     0.016     0.850   0.846509E-03
     0.016     0.858   0.792187E-03
     0.016     0.866   0.739300E-03
     0.016     0.874   0.688117E-03
     0.016     0.882   0.638199E-03
     0.016     0.890   0.589774E-03
     0.016     0.898   0.542445E-03
     0.016     0.906   0.496401E-03
     0.016     0.913   0.451291E-03
     0.016     0.921   0.407262E-03
     0.016     0.929   0.364006E-03
     0.016     0.937   0.321630E-03
     0.016     0.945   0.279870E-03
     0.016     0.953   0.238791E-03
     0.016     0.961   0.198172E-03
     0.016     0.969   0.158038E-03
     0.016     0.976   0.118210E-03
     0.016     0.984   0.786729E-04
     0.016     0.992   0.392880E-04
     0.016     1.000    0.00000    
     0.024     0.000   0.741428E-01
     0.024     0.008   0.721915E-01
     0.024     0.016   0.702847E-01
     0.024     0.024   0.684212E-01
     0.024     0.031   0.666002E-01
     0.024     0.039   0.648207E-01
     0.024     0.047   0.630819E-01
     0.024     0.055   0.613827E-01
     0.024     0.063   0.597226E-01
     0.024     0.071   0.581004E-01
     0.024     0.079   0.565157E-01
     0.024     0.087   0.549672E-01
     0.024     0.094   0.534548E-01
     0.024     0.102   0.519769E-01
     0.024     0.110   0.505338E-01
     0.024     0.118   0.491237E-01
     0.024     0.126   0.477469E-01
     0.024     0.134   0.464019E-01
     0.024     0.142   0.450889E-01
     0.024     0.150   0.438062E-01
     0.024     0.157   0.425543E-01
     0.024     0.165   0.413315E-01
     0.024     0.173   0.401384E-01
     0.024     0.181   0.389730E-01
     0.024     0.189   0.378363E-01
     0.024     0.197   0.367262E-01
     0.024     0.205   0.356435E-01
     0.024     0.213   0.345864E-01
     0.024     0.220   0.335558E-01
     0.024     0.228   0.325497E-01
     0.024     0.236   0.315691E-01
     0.024     0.244   0.306118E-01
     0.024     0.252   0.296792E-01
     0.024     0.260   0.287690E-01
     0.024     0.268   0.278825E-01
     0.024     0.276   0.270175E-01
     0.024     0.283   0.261753E-01
     0.024     0.291   0.253537E-01
     0.024     0.299   0.245541E-01
     0.024     0.307   0.237741E-01
     0.024     0.315   0.230154E-01
     0.024     0.323   0.222755E-01
     0.024     0.331   0.215560E-01
     0.024     0.339   0.208546E-01
     0.024     0.346   0.201728E-01
     0.024     0.354   0.195082E-01
     0.024     0.362   0.188626E-01
     0.024     0.370   0.182335E-01
     0.024     0.378   0.176225E-01
     0.024     0.386   0.170273E-01
     0.024     0.394   0.164496E-01
     0.024     0.402   0.158870E-01
     0.024     0.409   0.153412E-01
     0.024     0.417   0.148098E-01
     0.024     0.425   0.142945E-01
     0.024     0.433   0.137930E-01
     0.024     0.441   0.133069E-01
     0.024     0.449   0.128340E-01
     0.024     0.457   0.123758E-01
     0.024     0.465   0.119302E-01
     0.024     0.472   0.114988E-01
     0.024     0.480   0.110793E-01
     0.024     0.488   0.106734E-01
     0.024     0.496   0.102789E-01
     0.024     0.504   0.989734E-02
     0.024     0.512   0.952658E-02
     0.024     0.520   0.916822E-02
     0.024     0.528   0.882013E-02
     0.024     0.535   0.848387E-02
     0.024     0.543   0.815735E-02
     0.024     0.551   0.784211E-02
     0.024     0.559   0.753611E-02
     0.024     0.567   0.724085E-02
     0.024     0.575   0.695434E-02
     0.024     0.583   0.667802E-02
     0.024     0.591   0.641000E-02
     0.024     0.598   0.615165E-02
     0.024     0.606   0.590113E-02
     0.024     0.614   0.565980E-02
     0.024     0.622   0.542584E-02
     0.024     0.630   0.520058E-02
     0.024     0.638   0.498227E-02
     0.024     0.646   0.477217E-02
     0.024     0.654   0.456861E-02
     0.024     0.661   0.437280E-02
     0.024     0.669   0.418314E-02
     0.024     0.677   0.400076E-02
     0.024     0.685   0.382414E-02
     0.024     0.693   0.365437E-02
     0.024     0.701   0.348999E-02
     0.024     0.709   0.333202E-02
     0.024     0.717   0.317909E-02
     0.024     0.724   0.303215E-02
     0.024     0.732   0.288989E-02
     0.024     0.740   0.275323E-02
     0.024     0.748   0.262091E-02
     0.024     0.756   0.249379E-02
     0.024     0.764   0.237069E-02
     0.024     0.772   0.225240E-02
     0.024     0.780   0.213783E-02
     0.024     0.787   0.202769E-02
     0.024     0.795   0.192096E-02
     0.024     0.803   0.181831E-02
     0.024     0.811   0.171876E-02
     0.024     0.819   0.162294E-02
     0.024     0.827   0.152995E-02
     0.024     0.835   0.144034E-02
     0.024     0.843   0.135328E-02
     0.024     0.850   0.126927E-02
     0.024     0.858   0.118753E-02
     0.024     0.866   0.110852E-02
     0.024     0.874   0.103152E-02
     0.024     0.882   0.956928E-03
     0.024     0.890   0.884100E-03
     0.024     0.898   0.813354E-03
     0.024     0.906   0.744129E-03
     0.024     0.913   0.676677E-03
     0.024     0.921   0.610504E-03
     0.024     0.929   0.545801E-03
     0.024     0.937   0.482138E-03
     0.024     0.945   0.419645E-03
     0.024     0.953   0.357958E-03
     0.024     0.961   0.297145E-03
     0.024     0.969   0.236906E-03
     0.024     0.976   0.177248E-03
     0.024     0.984   0.117934E-03
     0.024     0.992   0.589097E-04
     0.024     1.000    0.00000    
     0.031     0.000   0.987864E-01
     0.031     0.008   0.961867E-01
     0.031     0.016   0.936460E-01
     0.031     0.024   0.911632E-01
     0.031     0.031   0.887368E-01
     0.031     0.039   0.863660E-01
     0.031     0.047   0.840490E-01
     0.031     0.055   0.817853E-01
     0.031     0.063   0.795732E-01
     0.031     0.071   0.774121E-01
     0.031     0.079   0.753003E-01
     0.031     0.087   0.732375E-01
     0.031     0.094   0.712219E-01
     0.031     0.102   0.692534E-01
     0.031     0.110   0.673299E-01
     0.031     0.118   0.654518E-01
     0.031     0.126   0.636168E-01
     0.031     0.134   0.618253E-01
     0.031     0.142   0.600752E-01
     0.031     0.150   0.583669E-01
     0.031     0.157   0.566982E-01
     0.031     0.165   0.550697E-01
     0.031     0.173   0.534792E-01
     0.031     0.181   0.519274E-01
     0.031     0.189   0.504119E-01
     0.031     0.197   0.489337E-01
     0.031     0.205   0.474903E-01
     0.031     0.213   0.460828E-01
     0.031     0.220   0.447087E-01
     0.031     0.228   0.433691E-01
     0.031     0.236   0.420615E-01
     0.031     0.244   0.407872E-01
     0.031     0.252   0.395435E-01
     0.031     0.260   0.383319E-01
     0.031     0.268   0.371496E-01
     0.031     0.276   0.359982E-01
     0.031     0.283   0.348749E-01
     0.031     0.291   0.337814E-01
     0.031     0.299   0.327148E-01
     0.031     0.307   0.316768E-01
     0.031     0.315   0.306646E-01
     0.031     0.323   0.296801E-01
     0.031     0.331   0.287202E-01
     0.031     0.339   0.277869E-01
     0.031     0.346   0.268772E-01
     0.031     0.354   0.259931E-01
     0.031     0.362   0.251315E-01
     0.031     0.370   0.242946E-01
     0.031     0.378   0.234792E-01
     0.031     0.386   0.226876E-01
     0.031     0.394   0.219165E-01
     0.031     0.402   0.211683E-01
     0.031     0.409   0.204397E-01
     0.031     0.417   0.197330E-01
     0.031     0.425   0.190451E-01
     0.031     0.433   0.183782E-01
     0.031     0.441   0.177292E-01
     0.031     0.449   0.171004E-01
     0.031     0.457   0.164887E-01
     0.031     0.465   0.158963E-01
     0.031     0.472   0.153202E-01
     0.031     0.480   0.147626E-01
     0.031     0.488   0.142205E-01
     0.031     0.496   0.136960E-01
     0.031     0.504   0.131864E-01
     0.031     0.512   0.126937E-01
     0.031     0.520   0.122150E-01
     0.031     0.528   0.117524E-01
     0.031     0.535   0.113031E-01
     0.031     0.543   0.108693E-01
     0.031     0.551   0.104481E-01
     0.031     0.559   0.100416E-01
     0.031     0.567   0.964700E-02
     0.031     0.575   0.926639E-02
     0.031     0.583   0.889712E-02
     0.031     0.591   0.854110E-02
     0.031     0.598   0.819581E-02
     0.031     0.606   0.786309E-02
     0.031     0.614   0.754049E-02
     0.031     0.622   0.722980E-02
     0.031     0.630   0.692865E-02
     0.031     0.638   0.663877E-02
     0.031     0.646   0.635787E-02
     0.031     0.654   0.608760E-02
     0.031     0.661   0.582579E-02
     0.031     0.669   0.557398E-02
     0.031     0.677   0.533010E-02
     0.031     0.685   0.509564E-02
     0.031     0.693   0.486860E-02
     0.031     0.701   0.465040E-02
     0.031     0.709   0.443913E-02
     0.031     0.717   0.423614E-02
     0.031     0.724   0.403961E-02
     0.031     0.732   0.385080E-02
     0.031     0.740   0.366800E-02
     0.031     0.748   0.349239E-02
     0.031     0.756   0.332235E-02
     0.031     0.764   0.315898E-02
     0.031     0.772   0.300076E-02
     0.031     0.780   0.284870E-02
     0.031     0.787   0.270137E-02
     0.031     0.795   0.255972E-02
     0.031     0.803   0.242241E-02
     0.031     0.811   0.229030E-02
     0.031     0.819   0.216214E-02
     0.031     0.827   0.203871E-02
     0.031     0.835   0.191886E-02
     0.031     0.843   0.180330E-02
     0.031     0.850   0.169095E-02
     0.031     0.858   0.158243E-02
     0.031     0.866   0.147679E-02
     0.031     0.874   0.137455E-02
     0.031     0.882   0.127484E-02
     0.031     0.890   0.117810E-02
     0.031     0.898   0.108356E-02
     0.031     0.906   0.991588E-03
     0.031     0.913   0.901479E-03
     0.031     0.921   0.813528E-03
     0.031     0.929   0.727122E-03
     0.031     0.937   0.642474E-03
     0.031     0.945   0.559055E-03
     0.031     0.953   0.476998E-03
     0.031     0.961   0.395859E-03
     0.031     0.969   0.315690E-03
     0.031     0.976   0.236131E-03
     0.031     0.984   0.157153E-03
     0.031     0.992   0.784799E-04
     0.031     1.000    0.00000    
     0.039     0.000   0.123370    
     0.039     0.008   0.120123    
     0.039     0.016   0.116950    
     0.039     0.024   0.113849    
     0.039     0.031   0.110819    
     0.039     0.039   0.107858    
     0.039     0.047   0.104965    
     0.039     0.055   0.102138    
     0.039     0.063   0.993753E-01
     0.039     0.071   0.966760E-01
     0.039     0.079   0.940392E-01
     0.039     0.087   0.914625E-01
     0.039     0.094   0.889459E-01
     0.039     0.102   0.864869E-01
     0.039     0.110   0.840855E-01
     0.039     0.118   0.817392E-01
     0.039     0.126   0.794484E-01
     0.039     0.134   0.772103E-01
     0.039     0.142   0.750255E-01
     0.039     0.150   0.728912E-01
     0.039     0.157   0.708081E-01
     0.039     0.165   0.687734E-01
     0.039     0.173   0.667881E-01
     0.039     0.181   0.648491E-01
     0.039     0.189   0.629576E-01
     0.039     0.197   0.611104E-01
     0.039     0.205   0.593090E-01
     0.039     0.213   0.575500E-01
     0.039     0.220   0.558351E-01
     0.039     0.228   0.541610E-01
     0.039     0.236   0.525292E-01
     0.039     0.244   0.509365E-01
     0.039     0.252   0.493846E-01
     0.039     0.260   0.478701E-01
     0.039     0.268   0.463950E-01
     0.039     0.276   0.449557E-01
     0.039     0.283   0.435543E-01
     0.039     0.291   0.421872E-01
     0.039     0.299   0.408567E-01
     0.039     0.307   0.395589E-01
     0.039     0.315   0.382964E-01
     0.039     0.323   0.370653E-01
     0.039     0.331   0.358681E-01
     0.039     0.339   0.347009E-01
     0.039     0.346   0.335664E-01
     0.039     0.354   0.324607E-01
     0.039     0.362   0.313863E-01
     0.039     0.370   0.303395E-01
     0.039     0.378   0.293229E-01
     0.039     0.386   0.283326E-01
     0.039     0.394   0.273713E-01
     0.039     0.402   0.264352E-01
     0.039     0.409   0.255270E-01
     0.039     0.417   0.246428E-01
     0.039     0.425   0.237853E-01
     0.039     0.433   0.229508E-01
     0.039     0.441   0.221420E-01
     0.039     0.449   0.213551E-01
     0.039     0.457   0.205928E-01
     0.039     0.465   0.198513E-01
     0.039     0.472   0.191334E-01
     0.039     0.480   0.184355E-01
     0.039     0.488   0.177600E-01
     0.039     0.496   0.171035E-01
     0.039     0.504   0.164686E-01
     0.039     0.512   0.158517E-01
     0.039     0.520   0.152554E-01
     0.039     0.528   0.146762E-01
     0.039     0.535   0.141167E-01
     0.039     0.543   0.135734E-01
     0.039     0.551   0.130489E-01
     0.039     0.559   0.125397E-01
     0.039     0.567   0.120484E-01
     0.039     0.575   0.115716E-01
     0.039     0.583   0.111119E-01
     0.039     0.591   0.106659E-01
     0.039     0.598   0.102360E-01
     0.039     0.606   0.981918E-02
     0.039     0.614   0.941760E-02
     0.039     0.622   0.902832E-02
     0.039     0.630   0.865349E-02
     0.039     0.638   0.829023E-02
     0.039     0.646   0.794064E-02
     0.039     0.654   0.760193E-02
     0.039     0.661   0.727612E-02
     0.039     0.669   0.696052E-02
     0.039     0.677   0.665705E-02
     0.039     0.685   0.636317E-02
     0.039     0.693   0.608068E-02
     0.039     0.701   0.580716E-02
     0.039     0.709   0.554431E-02
     0.039     0.717   0.528983E-02
     0.039     0.724   0.504534E-02
     0.039     0.732   0.480863E-02
     0.039     0.740   0.458123E-02
     0.039     0.748   0.436106E-02
     0.039     0.756   0.414953E-02
     0.039     0.764   0.394470E-02
     0.039     0.772   0.374788E-02
     0.039     0.780   0.355723E-02
     0.039     0.787   0.337397E-02
     0.039     0.795   0.319637E-02
     0.039     0.803   0.302556E-02
     0.039     0.811   0.285993E-02
     0.039     0.819   0.270049E-02
     0.039     0.827   0.254576E-02
     0.039     0.835   0.239665E-02
     0.039     0.843   0.225179E-02
     0.039     0.850   0.211199E-02
     0.039     0.858   0.197599E-02
     0.039     0.866   0.184451E-02
     0.039     0.874   0.171640E-02
     0.039     0.882   0.159228E-02
     0.039     0.890   0.147110E-02
     0.039     0.898   0.135338E-02
     0.039     0.906   0.123819E-02
     0.039     0.913   0.112596E-02
     0.039     0.921   0.101585E-02
     0.039     0.929   0.908184E-03
     0.039     0.937   0.802252E-03
     0.039     0.945   0.698267E-03
     0.039     0.953   0.595623E-03
     0.039     0.961   0.494434E-03
     0.039     0.969   0.394199E-03
     0.039     0.976   0.294932E-03
     0.039     0.984   0.196235E-03
     0.039     0.992   0.980227E-04
     0.039     1.000    0.00000    
     0.047     0.000   0.147877    
     0.047     0.008   0.143986    
     0.047     0.016   0.140182    
     0.047     0.024   0.136466    
     0.047     0.031   0.132834    
     0.047     0.039   0.129285    
     0.047     0.047   0.125816    
     0.047     0.055   0.122428    
     0.047     0.063   0.119116    
     0.047     0.071   0.115881    
     0.047     0.079   0.112720    
     0.047     0.087   0.109632    
     0.047     0.094   0.106615    
     0.047     0.102   0.103668    
     0.047     0.110   0.100789    
     0.047     0.118   0.979774E-01
     0.047     0.126   0.952306E-01
     0.047     0.134   0.925488E-01
     0.047     0.142   0.899290E-01
     0.047     0.150   0.873718E-01
     0.047     0.157   0.848738E-01
     0.047     0.165   0.824361E-01
     0.047     0.173   0.800551E-01
     0.047     0.181   0.777322E-01
     0.047     0.189   0.754636E-01
     0.047     0.197   0.732508E-01
     0.047     0.205   0.710901E-01
     0.047     0.213   0.689832E-01
     0.047     0.220   0.669262E-01
     0.047     0.228   0.649210E-01
     0.047     0.236   0.629635E-01
     0.047     0.244   0.610560E-01
     0.047     0.252   0.591942E-01
     0.047     0.260   0.573805E-01
     0.047     0.268   0.556107E-01
     0.047     0.276   0.538872E-01
     0.047     0.283   0.522056E-01
     0.047     0.291   0.505687E-01
     0.047     0.299   0.489720E-01
     0.047     0.307   0.474183E-01
     0.047     0.315   0.459031E-01
     0.047     0.323   0.444294E-01
     0.047     0.331   0.429924E-01
     0.047     0.339   0.415953E-01
     0.047     0.346   0.402335E-01
     0.047     0.354   0.389101E-01
     0.047     0.362   0.376203E-01
     0.047     0.370   0.363675E-01
     0.047     0.378   0.351470E-01
     0.047     0.386   0.339619E-01
     0.047     0.394   0.328077E-01
     0.047     0.402   0.316876E-01
     0.047     0.409   0.305970E-01
     0.047     0.417   0.295391E-01
     0.047     0.425   0.285093E-01
     0.047     0.433   0.275110E-01
     0.047     0.441   0.265396E-01
     0.047     0.449   0.255983E-01
     0.047     0.457   0.246826E-01
     0.047     0.465   0.237958E-01
     0.047     0.472   0.229334E-01
     0.047     0.480   0.220987E-01
     0.047     0.488   0.212872E-01