Title="Temperature Data"
Variables="X","Y","T"
 
Zone I=    64, J=    64, F=POINT
     0.000     0.000    0.00000    
     0.000     0.016    0.00000    
     0.000     0.032    0.00000    
     0.000     0.048    0.00000    
     0.000     0.063    0.00000    
     0.000     0.079    0.00000    
     0.000     0.095    0.00000    
     0.000     0.111    0.00000    
     0.000     0.127    0.00000    
     0.000     0.143    0.00000    
     0.000     0.159    0.00000    
     0.000     0.175    0.00000    
     0.000     0.190    0.00000    
     0.000     0.206    0.00000    
     0.000     0.222    0.00000    
     0.000     0.238    0.00000    
     0.000     0.254    0.00000    
     0.000     0.270    0.00000    
     0.000     0.286    0.00000    
     0.000     0.302    0.00000    
     0.000     0.317    0.00000    
     0.000     0.333    0.00000    
     0.000     0.349    0.00000    
     0.000     0.365    0.00000    
     0.000     0.381    0.00000    
     0.000     0.397    0.00000    
     0.000     0.413    0.00000    
     0.000     0.429    0.00000    
     0.000     0.444    0.00000    
     0.000     0.460    0.00000    
     0.000     0.476    0.00000    
     0.000     0.492    0.00000    
     0.000     0.508    0.00000    
     0.000     0.524    0.00000    
     0.000     0.540    0.00000    
     0.000     0.556    0.00000    
     0.000     0.571    0.00000    
     0.000     0.587    0.00000    
     0.000     0.603    0.00000    
     0.000     0.619    0.00000    
     0.000     0.635    0.00000    
     0.000     0.651    0.00000    
     0.000     0.667    0.00000    
     0.000     0.683    0.00000    
     0.000     0.698    0.00000    
     0.000     0.714    0.00000    
     0.000     0.730    0.00000    
     0.000     0.746    0.00000    
     0.000     0.762    0.00000    
     0.000     0.778    0.00000    
     0.000     0.794    0.00000    
     0.000     0.810    0.00000    
     0.000     0.825    0.00000    
     0.000     0.841    0.00000    
     0.000     0.857    0.00000    
     0.000     0.873    0.00000    
     0.000     0.889    0.00000    
     0.000     0.905    0.00000    
     0.000     0.921    0.00000    
     0.000     0.937    0.00000    
     0.000     0.952    0.00000    
     0.000     0.968    0.00000    
     0.000     0.984    0.00000    
     0.000     1.000    0.00000    
     0.016     0.000   0.498459E-01
     0.016     0.016   0.381166E-01
     0.016     0.032   0.274470E-01
     0.016     0.048   0.185357E-01
     0.016     0.063   0.117041E-01
     0.016     0.079   0.689519E-02
     0.016     0.095   0.378463E-02
     0.016     0.111   0.193383E-02
     0.016     0.127   0.919570E-03
     0.016     0.143   0.406944E-03
     0.016     0.159   0.167647E-03
     0.016     0.175   0.643248E-04
     0.016     0.190   0.230010E-04
     0.016     0.206   0.767004E-05
     0.016     0.222   0.238698E-05
     0.016     0.238   0.693774E-06
     0.016     0.254   0.188460E-06
     0.016     0.270   0.478792E-07
     0.016     0.286   0.113837E-07
     0.016     0.302   0.253441E-08
     0.016     0.317   0.528631E-09
     0.016     0.333   0.103349E-09
     0.016     0.349   0.189448E-10
     0.016     0.365   0.325712E-11
     0.016     0.381   0.525314E-12
     0.016     0.397   0.794869E-13
     0.016     0.413   0.112841E-13
     0.016     0.429   0.150280E-14
     0.016     0.444   0.187722E-15
     0.016     0.460   0.219879E-16
     0.016     0.476   0.241397E-17
     0.016     0.492   0.248273E-18
     0.016     0.508   0.239053E-19
     0.016     0.524   0.215320E-20
     0.016     0.540   0.181255E-21
     0.016     0.556   0.142440E-22
     0.016     0.571   0.104365E-23
     0.016     0.587   0.711886E-25
     0.016     0.603   0.451292E-26
     0.016     0.619   0.265364E-27
     0.016     0.635   0.144405E-28
     0.016     0.651   0.725362E-30
     0.016     0.667   0.335319E-31
     0.016     0.683   0.142165E-32
     0.016     0.698   0.550576E-34
     0.016     0.714   0.193863E-35
     0.016     0.730   0.617199E-37
     0.016     0.746   0.176504E-38
     0.016     0.762   0.449827E-40
     0.016     0.778   0.101179E-41
     0.016     0.794   0.198451E-43
     0.016     0.810   0.334227E-45
     0.016     0.825   0.473635E-47
     0.016     0.841   0.549244E-49
     0.016     0.857   0.500511E-51
     0.016     0.873   0.336116E-53
     0.016     0.889   0.147900E-55
     0.016     0.905   0.319913E-58
     0.016     0.921    0.00000    
     0.016     0.937    0.00000    
     0.016     0.952    0.00000    
     0.016     0.968    0.00000    
     0.016     0.984    0.00000    
     0.016     1.000    0.00000    
     0.032     0.000   0.995678E-01
     0.032     0.016   0.761384E-01
     0.032     0.032   0.548257E-01
     0.032     0.048   0.370253E-01
     0.032     0.063   0.233791E-01
     0.032     0.079   0.137732E-01
     0.032     0.095   0.755984E-02
     0.032     0.111   0.386285E-02
     0.032     0.127   0.183685E-02
     0.032     0.143   0.812877E-03
     0.032     0.159   0.334878E-03
     0.032     0.175   0.128490E-03
     0.032     0.190   0.459448E-04
     0.032     0.206   0.153210E-04
     0.032     0.222   0.476803E-05
     0.032     0.238   0.138582E-05
     0.032     0.254   0.376451E-06
     0.032     0.270   0.956394E-07
     0.032     0.286   0.227390E-07
     0.032     0.302   0.506251E-08
     0.032     0.317   0.105595E-08
     0.032     0.333   0.206440E-09
     0.032     0.349   0.378425E-10
     0.032     0.365   0.650613E-11
     0.032     0.381   0.104932E-11
     0.032     0.397   0.158776E-12
     0.032     0.413   0.225402E-13
     0.032     0.429   0.300187E-14
     0.032     0.444   0.374978E-15
     0.032     0.460   0.439212E-16
     0.032     0.476   0.482193E-17
     0.032     0.492   0.495928E-18
     0.032     0.508   0.477512E-19
     0.032     0.524   0.430105E-20
     0.032     0.540   0.362060E-21
     0.032     0.556   0.284527E-22
     0.032     0.571   0.208471E-23
     0.032     0.587   0.142200E-24
     0.032     0.603   0.901462E-26
     0.032     0.619   0.530068E-27
     0.032     0.635   0.288452E-28
     0.032     0.651   0.144892E-29
     0.032     0.667   0.669804E-31
     0.032     0.683   0.283977E-32
     0.032     0.698   0.109978E-33
     0.032     0.714   0.387244E-35
     0.032     0.730   0.123286E-36
     0.032     0.746   0.352570E-38
     0.032     0.762   0.898536E-40
     0.032     0.778   0.202107E-41
     0.032     0.794   0.396409E-43
     0.032     0.810   0.667623E-45
     0.032     0.825   0.946092E-47
     0.032     0.841   0.109712E-48
     0.032     0.857   0.999777E-51
     0.032     0.873   0.671397E-53
     0.032     0.889   0.295432E-55
     0.032     0.905   0.639031E-58
     0.032     0.921    0.00000    
     0.032     0.937    0.00000    
     0.032     0.952    0.00000    
     0.032     0.968    0.00000    
     0.032     0.984    0.00000    
     0.032     1.000    0.00000    
     0.048     0.000   0.149042    
     0.048     0.016   0.113971    
     0.048     0.032   0.820681E-01
     0.048     0.048   0.554228E-01
     0.048     0.063   0.349959E-01
     0.048     0.079   0.206170E-01
     0.048     0.095   0.113163E-01
     0.048     0.111   0.578226E-02
     0.048     0.127   0.274957E-02
     0.048     0.143   0.121679E-02
     0.048     0.159   0.501276E-03
     0.048     0.175   0.192335E-03
     0.048     0.190   0.687743E-04
     0.048     0.206   0.229339E-04
     0.048     0.222   0.713722E-05
     0.048     0.238   0.207443E-05
     0.048     0.254   0.563506E-06
     0.048     0.270   0.143162E-06
     0.048     0.286   0.340379E-07
     0.048     0.302   0.757803E-08
     0.048     0.317   0.158064E-08
     0.048     0.333   0.309019E-09
     0.048     0.349   0.566462E-10
     0.048     0.365   0.973898E-11
     0.048     0.381   0.157072E-11
     0.048     0.397   0.237671E-12
     0.048     0.413   0.337403E-13
     0.048     0.429   0.449347E-14
     0.048     0.444   0.561301E-15
     0.048     0.460   0.657452E-16
     0.048     0.476   0.721791E-17
     0.048     0.492   0.742351E-18
     0.048     0.508   0.714784E-19
     0.048     0.524   0.643820E-20
     0.048     0.540   0.541964E-21
     0.048     0.556   0.425906E-22
     0.048     0.571   0.312058E-23
     0.048     0.587   0.212858E-24
     0.048     0.603   0.134939E-25
     0.048     0.619   0.793455E-27
     0.048     0.635   0.431781E-28
     0.048     0.651   0.216888E-29
     0.048     0.667   0.100262E-30
     0.048     0.683   0.425083E-32
     0.048     0.698   0.164626E-33
     0.048     0.714   0.579662E-35
     0.048     0.730   0.184546E-36
     0.048     0.746   0.527759E-38
     0.048     0.762   0.134501E-39
     0.048     0.778   0.302533E-41
     0.048     0.794   0.593382E-43
     0.048     0.810   0.999359E-45
     0.048     0.825   0.141620E-46
     0.048     0.841   0.164227E-48
     0.048     0.857   0.149656E-50
     0.048     0.873   0.100501E-52
     0.048     0.889   0.442230E-55
     0.048     0.905   0.956559E-58
     0.048     0.921    0.00000    
     0.048     0.937    0.00000    
     0.048     0.952    0.00000    
     0.048     0.968    0.00000    
     0.048     0.984    0.00000    
     0.048     1.000    0.00000    
     0.063     0.000   0.198146    
     0.063     0.016   0.151520    
     0.063     0.032   0.109106    
     0.063     0.048   0.736826E-01
     0.063     0.063   0.465258E-01
     0.063     0.079   0.274096E-01
     0.063     0.095   0.150446E-01
     0.063     0.111   0.768730E-02
     0.063     0.127   0.365545E-02
     0.063     0.143   0.161768E-02
     0.063     0.159   0.666428E-03
     0.063     0.175   0.255703E-03
     0.063     0.190   0.914329E-04
     0.063     0.206   0.304898E-04
     0.063     0.222   0.948866E-05
     0.063     0.238   0.275787E-05
     0.063     0.254   0.749160E-06
     0.063     0.270   0.190328E-06
     0.063     0.286   0.452521E-07
     0.063     0.302   0.100747E-07
     0.063     0.317   0.210140E-08
     0.063     0.333   0.410829E-09
     0.063     0.349   0.753090E-10
     0.063     0.365   0.129476E-10
     0.063     0.381   0.208822E-11
     0.063     0.397   0.315974E-12
     0.063     0.413   0.448564E-13
     0.063     0.429   0.597390E-14
     0.063     0.444   0.746229E-15
     0.063     0.460   0.874058E-16
     0.063     0.476   0.959594E-17
     0.063     0.492   0.986928E-18
     0.063     0.508   0.950278E-19
     0.063     0.524   0.855935E-20
     0.063     0.540   0.720521E-21
     0.063     0.556   0.566226E-22
     0.063     0.571   0.414869E-23
     0.063     0.587   0.282987E-24
     0.063     0.603   0.179396E-25
     0.063     0.619   0.105487E-26
     0.063     0.635   0.574037E-28
     0.063     0.651   0.288344E-29
     0.063     0.667   0.133295E-30
     0.063     0.683   0.565131E-32
     0.063     0.698   0.218864E-33
     0.063     0.714   0.770639E-35
     0.063     0.730   0.245348E-36
     0.063     0.746   0.701635E-38
     0.063     0.762   0.178814E-39
     0.063     0.778   0.402206E-41
     0.063     0.794   0.788879E-43
     0.063     0.810   0.132861E-44
     0.063     0.825   0.188278E-46
     0.063     0.841   0.218334E-48
     0.063     0.857   0.198962E-50
     0.063     0.873   0.133612E-52
     0.063     0.889   0.587928E-55
     0.063     0.905   0.127171E-57
     0.063     0.921    0.00000    
     0.063     0.937    0.00000    
     0.063     0.952    0.00000    
     0.063     0.968    0.00000    
     0.063     0.984    0.00000    
     0.063     1.000    0.00000    
     0.079     0.000   0.246757    
     0.079     0.016   0.188693    
     0.079     0.032   0.135874    
     0.079     0.048   0.917591E-01
     0.079     0.063   0.579399E-01
     0.079     0.079   0.341340E-01
     0.079     0.095   0.187354E-01
     0.079     0.111   0.957323E-02
     0.079     0.127   0.455224E-02
     0.079     0.143   0.201454E-02
     0.079     0.159   0.829922E-03
     0.079     0.175   0.318434E-03
     0.079     0.190   0.113864E-03
     0.079     0.206   0.379698E-04
     0.079     0.222   0.118165E-04
     0.079     0.238   0.343446E-05
     0.079     0.254   0.932952E-06
     0.079     0.270   0.237022E-06
     0.079     0.286   0.563538E-07
     0.079     0.302   0.125463E-07
     0.079     0.317   0.261694E-08
     0.079     0.333   0.511618E-09
     0.079     0.349   0.937845E-10
     0.079     0.365   0.161240E-10
     0.079     0.381   0.260052E-11
     0.079     0.397   0.393492E-12
     0.079     0.413   0.558610E-13
     0.079     0.429   0.743948E-14
     0.079     0.444   0.929302E-15
     0.079     0.460   0.108849E-15
     0.079     0.476   0.119501E-16
     0.079     0.492   0.122905E-17
     0.079     0.508   0.118341E-18
     0.079     0.524   0.106592E-19
     0.079     0.540   0.897287E-21
     0.079     0.556   0.705138E-22
     0.079     0.571   0.516649E-23
     0.079     0.587   0.352413E-24
     0.079     0.603   0.223408E-25
     0.079     0.619   0.131366E-26
     0.079     0.635   0.714865E-28
     0.079     0.651   0.359084E-29
     0.079     0.667   0.165997E-30
     0.079     0.683   0.703775E-32
     0.079     0.698   0.272558E-33
     0.079     0.714   0.959700E-35
     0.079     0.730   0.305539E-36
     0.079     0.746   0.873768E-38
     0.079     0.762   0.222683E-39
     0.079     0.778   0.500879E-41
     0.079     0.794   0.982415E-43
     0.079     0.810   0.165456E-44
     0.079     0.825   0.234468E-46
     0.079     0.841   0.271898E-48
     0.079     0.857   0.247773E-50
     0.079     0.873   0.166391E-52
     0.079     0.889   0.732164E-55
     0.079     0.905   0.158370E-57
     0.079     0.921    0.00000    
     0.079     0.937    0.00000    
     0.079     0.952    0.00000    
     0.079     0.968    0.00000    
     0.079     0.984    0.00000    
     0.079     1.000    0.00000    
     0.095     0.000   0.294755    
     0.095     0.016   0.225396    
     0.095     0.032   0.162303    
     0.095     0.048   0.109608    
     0.095     0.063   0.692101E-01
     0.095     0.079   0.407735E-01
     0.095     0.095   0.223797E-01
     0.095     0.111   0.114354E-01
     0.095     0.127   0.543772E-02
     0.095     0.143   0.240640E-02
     0.095     0.159   0.991354E-03
     0.095     0.175   0.380374E-03
     0.095     0.190   0.136012E-03
     0.095     0.206   0.453555E-04
     0.095     0.222   0.141150E-04
     0.095     0.238   0.410252E-05
     0.095     0.254   0.111442E-05
     0.095     0.270   0.283126E-06
     0.095     0.286   0.673154E-07
     0.095     0.302   0.149868E-07
     0.095     0.317   0.312597E-08
     0.095     0.333   0.611134E-09
     0.095     0.349   0.112027E-09
     0.095     0.365   0.192604E-10
     0.095     0.381   0.310636E-11
     0.095     0.397   0.470032E-12
     0.095     0.413   0.667268E-13
     0.095     0.429   0.888656E-14
     0.095     0.444   0.111006E-14
     0.095     0.460   0.130022E-15
     0.095     0.476   0.142746E-16
     0.095     0.492   0.146812E-17
     0.095     0.508   0.141360E-18
     0.095     0.524   0.127326E-19
     0.095     0.540   0.107182E-20
     0.095     0.556   0.842297E-22
     0.095     0.571   0.617145E-23
     0.095     0.587   0.420962E-24
     0.095     0.603   0.266864E-25
     0.095     0.619   0.156918E-26
     0.095     0.635   0.853916E-28
     0.095     0.651   0.428930E-29
     0.095     0.667   0.198285E-30
     0.095     0.683   0.840670E-32
     0.095     0.698   0.325574E-33
     0.095     0.714   0.114638E-34
     0.095     0.730   0.364970E-36
     0.095     0.746   0.104373E-37
     0.095     0.762   0.265998E-39
     0.095     0.778   0.598307E-41
     0.095     0.794   0.117351E-42
     0.095     0.810   0.197639E-44
     0.095     0.825   0.280076E-46
     0.095     0.841   0.324786E-48
     0.095     0.857   0.295969E-50
     0.095     0.873   0.198757E-52
     0.095     0.889   0.874581E-55
     0.095     0.905   0.189175E-57
     0.095     0.921    0.00000    
     0.095     0.937    0.00000    
     0.095     0.952    0.00000    
     0.095     0.968    0.00000    
     0.095     0.984    0.00000    
     0.095     1.000    0.00000    
     0.111     0.000   0.342020    
     0.111     0.016   0.261539    
     0.111     0.032   0.188329    
     0.111     0.048   0.127184    
     0.111     0.063   0.803081E-01
     0.111     0.079   0.473117E-01
     0.111     0.095   0.259684E-01
     0.111     0.111   0.132691E-01
     0.111     0.127   0.630967E-02
     0.111     0.143   0.279227E-02
     0.111     0.159   0.115032E-02
     0.111     0.175   0.441368E-03
     0.111     0.190   0.157822E-03
     0.111     0.206   0.526284E-04
     0.111     0.222   0.163784E-04
     0.111     0.238   0.476037E-05
     0.111     0.254   0.129313E-05
     0.111     0.270   0.328526E-06
     0.111     0.286   0.781096E-07
     0.111     0.302   0.173900E-07
     0.111     0.317   0.362723E-08
     0.111     0.333   0.709132E-09
     0.111     0.349   0.129991E-09
     0.111     0.365   0.223489E-10
     0.111     0.381   0.360447E-11
     0.111     0.397   0.545403E-12
     0.111     0.413   0.774267E-13
     0.111     0.429   0.103116E-13
     0.111     0.444   0.128807E-14
     0.111     0.460   0.150871E-15
     0.111     0.476   0.165636E-16
     0.111     0.492   0.170354E-17
     0.111     0.508   0.164028E-18
     0.111     0.524   0.147743E-19
     0.111     0.540   0.124369E-20
     0.111     0.556   0.977362E-22
     0.111     0.571   0.716106E-23
     0.111     0.587   0.488465E-24
     0.111     0.603   0.309656E-25
     0.111     0.619   0.182081E-26
     0.111     0.635   0.990845E-28
     0.111     0.651   0.497711E-29
     0.111     0.667   0.230081E-30
     0.111     0.683   0.975474E-32
     0.111     0.698   0.377781E-33
     0.111     0.714   0.133020E-34
     0.111     0.730   0.423495E-36
     0.111     0.746   0.121109E-37
     0.111     0.762   0.308651E-39
     0.111     0.778   0.694248E-41
     0.111     0.794   0.136168E-42
     0.111     0.810   0.229332E-44
     0.111     0.825   0.324987E-46
     0.111     0.841   0.376867E-48
     0.111     0.857   0.343428E-50
     0.111     0.873   0.230628E-52
     0.111     0.889   0.101482E-54
     0.111     0.905   0.219510E-57
     0.111     0.921    0.00000    
     0.111     0.937    0.00000    
     0.111     0.952    0.00000    
     0.111     0.968    0.00000    
     0.111     0.984    0.00000    
     0.111     1.000    0.00000    
     0.127     0.000   0.388435    
     0.127     0.016   0.297032    
     0.127     0.032   0.213886    
     0.127     0.048   0.144443    
     0.127     0.063   0.912066E-01
     0.127     0.079   0.537322E-01
     0.127     0.095   0.294925E-01
     0.127     0.111   0.150698E-01
     0.127     0.127   0.716594E-02
     0.127     0.143   0.317120E-02
     0.127     0.159   0.130643E-02
     0.127     0.175   0.501265E-03
     0.127     0.190   0.179240E-03
     0.127     0.206   0.597705E-04
     0.127     0.222   0.186011E-04
     0.127     0.238   0.540638E-05
     0.127     0.254   0.146861E-05
     0.127     0.270   0.373109E-06
     0.127     0.286   0.887097E-07
     0.127     0.302   0.197499E-07
     0.127     0.317   0.411947E-08
     0.127     0.333   0.805366E-09
     0.127     0.349   0.147632E-09
     0.127     0.365   0.253818E-10
     0.127     0.381   0.409363E-11
     0.127     0.397   0.619419E-12
     0.127     0.413   0.879340E-13
     0.127     0.429   0.117109E-13
     0.127     0.444   0.146287E-14
     0.127     0.460   0.171346E-15
     0.127     0.476   0.188113E-16
     0.127     0.492   0.193472E-17
     0.127     0.508   0.186287E-18
     0.127     0.524   0.167793E-19
     0.127     0.540   0.141247E-20
     0.127     0.556   0.111000E-21
     0.127     0.571   0.813287E-23
     0.127     0.587   0.554753E-24
     0.127     0.603   0.351679E-25
     0.127     0.619   0.206791E-26
     0.127     0.635   0.112531E-27
     0.127     0.651   0.565254E-29
     0.127     0.667   0.261304E-30
     0.127     0.683   0.110785E-31
     0.127     0.698   0.429048E-33
     0.127     0.714   0.151072E-34
     0.127     0.730   0.480966E-36
     0.127     0.746   0.137545E-37
     0.127     0.762   0.350538E-39
     0.127     0.778   0.788462E-41
     0.127     0.794   0.154648E-42
     0.127     0.810   0.260454E-44
     0.127     0.825   0.369090E-46
     0.127     0.841   0.428010E-48
     0.127     0.857   0.390034E-50
     0.127     0.873   0.261926E-52
     0.127     0.889   0.115254E-54
     0.127     0.905   0.249299E-57
     0.127     0.921    0.00000    
     0.127     0.937    0.00000    
     0.127     0.952    0.00000    
     0.127     0.968    0.00000    
     0.127     0.984    0.00000    
     0.127     1.000    0.00000    
     0.143     0.000   0.433884    
     0.143     0.016   0.331786    
     0.143     0.032   0.238912    
     0.143     0.048   0.161344    
     0.143     0.063   0.101878    
     0.143     0.079   0.600192E-01
     0.143     0.095   0.329433E-01
     0.143     0.111   0.168330E-01
     0.143     0.127   0.800440E-02
     0.143     0.143   0.354225E-02
     0.143     0.159   0.145929E-02
     0.143     0.175   0.559916E-03
     0.143     0.190   0.200212E-03
     0.143     0.206   0.667639E-04
     0.143     0.222   0.207775E-04
     0.143     0.238   0.603896E-05
     0.143     0.254   0.164045E-05
     0.143     0.270   0.416765E-06
     0.143     0.286   0.990892E-07
     0.143     0.302   0.220607E-07
     0.143     0.317   0.460147E-08
     0.143     0.333   0.899598E-09
     0.143     0.349   0.164905E-09
     0.143     0.365   0.283516E-10
     0.143     0.381   0.457260E-11
     0.143     0.397   0.691894E-12
     0.143     0.413   0.982228E-13
     0.143     0.429   0.130811E-13
     0.143     0.444   0.163403E-14
     0.143     0.460   0.191394E-15
     0.143     0.476   0.210124E-16
     0.143     0.492   0.216109E-17
     0.143     0.508   0.208084E-18
     0.143     0.524   0.187425E-19
     0.143     0.540   0.157774E-20
     0.143     0.556   0.123987E-21
     0.143     0.571   0.908446E-23
     0.143     0.587   0.619662E-24
     0.143     0.603   0.392827E-25
     0.143     0.619   0.230986E-26
     0.143     0.635   0.125698E-27
     0.143     0.651   0.631391E-29
     0.143     0.667   0.291879E-30
     0.143     0.683   0.123748E-31
     0.143     0.698   0.479249E-33
     0.143     0.714   0.168748E-34
     0.143     0.730   0.537241E-36
     0.143     0.746   0.153638E-37
     0.143     0.762   0.391552E-39
     0.143     0.778   0.880717E-41
     0.143     0.794   0.172742E-42
     0.143     0.810   0.290928E-44
     0.143     0.825   0.412275E-46
     0.143     0.841   0.478090E-48
     0.143     0.857   0.435670E-50
     0.143     0.873   0.292573E-52
     0.143     0.889   0.128739E-54
     0.143     0.905   0.278468E-57
     0.143     0.921    0.00000    
     0.143     0.937    0.00000    
     0.143     0.952    0.00000    
     0.143     0.968    0.00000    
     0.143     0.984    0.00000    
     0.143     1.000    0.00000    
     0.159     0.000   0.478254    
     0.159     0.016   0.365716    
     0.159     0.032   0.263344    
     0.159     0.048   0.177843    
     0.159     0.063   0.112297    
     0.159     0.079   0.661569E-01
     0.159     0.095   0.363122E-01
     0.159     0.111   0.185544E-01
     0.159     0.127   0.882295E-02
     0.159     0.143   0.390449E-02
     0.159     0.159   0.160852E-02
     0.159     0.175   0.617174E-03
     0.159     0.190   0.220686E-03
     0.159     0.206   0.735914E-04
     0.159     0.222   0.229022E-04
     0.159     0.238   0.665652E-05
     0.159     0.254   0.180820E-05
     0.159     0.270   0.459385E-06
     0.159     0.286   0.109222E-06
     0.159     0.302   0.243167E-07
     0.159     0.317   0.507203E-08
     0.159     0.333   0.991594E-09
     0.159     0.349   0.181769E-09
     0.159     0.365   0.312509E-10
     0.159     0.381   0.504021E-11
     0.159     0.397   0.762649E-12
     0.159     0.413   0.108267E-12
     0.159     0.429   0.144189E-13
     0.159     0.444   0.180113E-14
     0.159     0.460   0.210966E-15
     0.159     0.476   0.231612E-16
     0.159     0.492   0.238209E-17
     0.159     0.508   0.229363E-18
     0.159     0.524   0.206592E-19
     0.159     0.540   0.173908E-20
     0.159     0.556   0.136667E-21
     0.159     0.571   0.100135E-22
     0.159     0.587   0.683030E-24
     0.159     0.603   0.432999E-25
     0.159     0.619   0.254608E-26
     0.159     0.635   0.138552E-27
     0.159     0.651   0.695959E-29
     0.159     0.667   0.321727E-30
     0.159     0.683   0.136403E-31
     0.159     0.698   0.528259E-33
     0.159     0.714   0.186005E-34
     0.159     0.730   0.592181E-36
     0.159     0.746   0.169350E-37
     0.159     0.762   0.431594E-39
     0.159     0.778   0.970782E-41
     0.159     0.794   0.190407E-42
     0.159     0.810   0.320679E-44
     0.159     0.825   0.454436E-46
     0.159     0.841   0.526981E-48
     0.159     0.857   0.480223E-50
     0.159     0.873   0.322492E-52
     0.159     0.889   0.141905E-54
     0.159     0.905   0.306945E-57
     0.159     0.921    0.00000    
     0.159     0.937    0.00000    
     0.159     0.952    0.00000    
     0.159     0.968    0.00000    
     0.159     0.984    0.00000    
     0.159     1.000    0.00000    
     0.175     0.000   0.521435    
     0.175     0.016   0.398736    
     0.175     0.032   0.287121    
     0.175     0.048   0.193901    
     0.175     0.063   0.122436    
     0.175     0.079   0.721302E-01
     0.175     0.095   0.395908E-01
     0.175     0.111   0.202297E-01
     0.175     0.127   0.961957E-02
     0.175     0.143   0.425702E-02
     0.175     0.159   0.175375E-02
     0.175     0.175   0.672899E-03
     0.175     0.190   0.240612E-03
     0.175     0.206   0.802359E-04
     0.175     0.222   0.249701E-04
     0.175     0.238   0.725754E-05
     0.175     0.254   0.197147E-05
     0.175     0.270   0.500862E-06
     0.175     0.286   0.119084E-06
     0.175     0.302   0.265123E-07
     0.175     0.317   0.552998E-08
     0.175     0.333   0.108112E-08
     0.175     0.349   0.198181E-09
     0.175     0.365   0.340725E-10
     0.175     0.381   0.549529E-11
     0.175     0.397   0.831508E-12
     0.175     0.413   0.118043E-12
     0.175     0.429   0.157207E-13
     0.175     0.444   0.196375E-14
     0.175     0.460   0.230014E-15
     0.175     0.476   0.252524E-16
     0.175     0.492   0.259717E-17
     0.175     0.508   0.250072E-18
     0.175     0.524   0.225245E-19
     0.175     0.540   0.189610E-20
     0.175     0.556   0.149006E-21
     0.175     0.571   0.109176E-22
     0.175     0.587   0.744701E-24
     0.175     0.603   0.472094E-25
     0.175     0.619   0.277596E-26
     0.175     0.635   0.151062E-27
     0.175     0.651   0.758797E-29
     0.175     0.667   0.350775E-30
     0.175     0.683   0.148718E-31
     0.175     0.698   0.575955E-33
     0.175     0.714   0.202799E-34
     0.175     0.730   0.645649E-36
     0.175     0.746   0.184640E-37
     0.175     0.762   0.470562E-39
     0.175     0.778   0.105843E-40
     0.175     0.794   0.207599E-42
     0.175     0.810   0.349633E-44
     0.175     0.825   0.495467E-46
     0.175     0.841   0.574561E-48
     0.175     0.857   0.523582E-50
     0.175     0.873   0.351609E-52
     0.175     0.889   0.154717E-54
     0.175     0.905   0.334659E-57
     0.175     0.921    0.00000    
     0.175     0.937    0.00000    
     0.175     0.952    0.00000    
     0.175     0.968    0.00000    
     0.175     0.984    0.00000    
     0.175     1.000    0.00000    
     0.190     0.000   0.563320    
     0.190     0.016   0.430765    
     0.190     0.032   0.310184    
     0.190     0.048   0.209476    
     0.190     0.063   0.132271    
     0.190     0.079   0.779241E-01
     0.190     0.095   0.427710E-01
     0.190     0.111   0.218546E-01
     0.190     0.127   0.103923E-01
     0.190     0.143   0.459897E-02
     0.190     0.159   0.189462E-02
     0.190     0.175   0.726950E-03
     0.190     0.190   0.259939E-03
     0.190     0.206   0.866810E-04
     0.190     0.222   0.269758E-04
     0.190     0.238   0.784051E-05
     0.190     0.254   0.212983E-05
     0.190     0.270   0.541094E-06
     0.190     0.286   0.128650E-06
     0.190     0.302   0.286419E-07
     0.190     0.317   0.597419E-08
     0.190     0.333   0.116797E-08
     0.190     0.349   0.214100E-09
     0.190     0.365   0.368094E-10
     0.190     0.381   0.593670E-11
     0.190     0.397   0.898300E-12
     0.190     0.413   0.127525E-12
     0.190     0.429   0.169835E-13
     0.190     0.444   0.212149E-14
     0.190     0.460   0.248491E-15
     0.190     0.476   0.272808E-16
     0.190     0.492   0.280579E-17
     0.190     0.508   0.270160E-18
     0.190     0.524   0.243338E-19
     0.190     0.540   0.204841E-20
     0.190     0.556   0.160975E-21
     0.190     0.571   0.117945E-22
     0.190     0.587   0.804520E-24
     0.190     0.603   0.510016E-25
     0.190     0.619   0.299894E-26
     0.190     0.635   0.163196E-27
     0.190     0.651   0.819748E-29
     0.190     0.667   0.378952E-30
     0.190     0.683   0.160664E-31
     0.190     0.698   0.622219E-33
     0.190     0.714   0.219089E-34
     0.190     0.730   0.697511E-36
     0.190     0.746   0.199472E-37
     0.190     0.762   0.508360E-39
     0.190     0.778   0.114345E-40
     0.190     0.794   0.224275E-42
     0.190     0.810   0.377718E-44
     0.190     0.825   0.535266E-46
     0.190     0.841   0.620714E-48
     0.190     0.857   0.565639E-50
     0.190     0.873   0.379853E-52
     0.190     0.889   0.167145E-54
     0.190     0.905   0.361541E-57
     0.190     0.921    0.00000    
     0.190     0.937    0.00000    
     0.190     0.952    0.00000    
     0.190     0.968    0.00000    
     0.190     0.984    0.00000    