Title="Temperature Data"
Variables="X","Y","T"
 
Zone I=   128, J=   128, F=POINT
     0.000     0.000    0.00000    
     0.000     0.008    0.00000    
     0.000     0.016    0.00000    
     0.000     0.024    0.00000    
     0.000     0.031    0.00000    
     0.000     0.039    0.00000    
     0.000     0.047    0.00000    
     0.000     0.055    0.00000    
     0.000     0.063    0.00000    
     0.000     0.071    0.00000    
     0.000     0.079    0.00000    
     0.000     0.087    0.00000    
     0.000     0.094    0.00000    
     0.000     0.102    0.00000    
     0.000     0.110    0.00000    
     0.000     0.118    0.00000    
     0.000     0.126    0.00000    
     0.000     0.134    0.00000    
     0.000     0.142    0.00000    
     0.000     0.150    0.00000    
     0.000     0.157    0.00000    
     0.000     0.165    0.00000    
     0.000     0.173    0.00000    
     0.000     0.181    0.00000    
     0.000     0.189    0.00000    
     0.000     0.197    0.00000    
     0.000     0.205    0.00000    
     0.000     0.213    0.00000    
     0.000     0.220    0.00000    
     0.000     0.228    0.00000    
     0.000     0.236    0.00000    
     0.000     0.244    0.00000    
     0.000     0.252    0.00000    
     0.000     0.260    0.00000    
     0.000     0.268    0.00000    
     0.000     0.276    0.00000    
     0.000     0.283    0.00000    
     0.000     0.291    0.00000    
     0.000     0.299    0.00000    
     0.000     0.307    0.00000    
     0.000     0.315    0.00000    
     0.000     0.323    0.00000    
     0.000     0.331    0.00000    
     0.000     0.339    0.00000    
     0.000     0.346    0.00000    
     0.000     0.354    0.00000    
     0.000     0.362    0.00000    
     0.000     0.370    0.00000    
     0.000     0.378    0.00000    
     0.000     0.386    0.00000    
     0.000     0.394    0.00000    
     0.000     0.402    0.00000    
     0.000     0.409    0.00000    
     0.000     0.417    0.00000    
     0.000     0.425    0.00000    
     0.000     0.433    0.00000    
     0.000     0.441    0.00000    
     0.000     0.449    0.00000    
     0.000     0.457    0.00000    
     0.000     0.465    0.00000    
     0.000     0.472    0.00000    
     0.000     0.480    0.00000    
     0.000     0.488    0.00000    
     0.000     0.496    0.00000    
     0.000     0.504    0.00000    
     0.000     0.512    0.00000    
     0.000     0.520    0.00000    
     0.000     0.528    0.00000    
     0.000     0.535    0.00000    
     0.000     0.543    0.00000    
     0.000     0.551    0.00000    
     0.000     0.559    0.00000    
     0.000     0.567    0.00000    
     0.000     0.575    0.00000    
     0.000     0.583    0.00000    
     0.000     0.591    0.00000    
     0.000     0.598    0.00000    
     0.000     0.606    0.00000    
     0.000     0.614    0.00000    
     0.000     0.622    0.00000    
     0.000     0.630    0.00000    
     0.000     0.638    0.00000    
     0.000     0.646    0.00000    
     0.000     0.654    0.00000    
     0.000     0.661    0.00000    
     0.000     0.669    0.00000    
     0.000     0.677    0.00000    
     0.000     0.685    0.00000    
     0.000     0.693    0.00000    
     0.000     0.701    0.00000    
     0.000     0.709    0.00000    
     0.000     0.717    0.00000    
     0.000     0.724    0.00000    
     0.000     0.732    0.00000    
     0.000     0.740    0.00000    
     0.000     0.748    0.00000    
     0.000     0.756    0.00000    
     0.000     0.764    0.00000    
     0.000     0.772    0.00000    
     0.000     0.780    0.00000    
     0.000     0.787    0.00000    
     0.000     0.795    0.00000    
     0.000     0.803    0.00000    
     0.000     0.811    0.00000    
     0.000     0.819    0.00000    
     0.000     0.827    0.00000    
     0.000     0.835    0.00000    
     0.000     0.843    0.00000    
     0.000     0.850    0.00000    
     0.000     0.858    0.00000    
     0.000     0.866    0.00000    
     0.000     0.874    0.00000    
     0.000     0.882    0.00000    
     0.000     0.890    0.00000    
     0.000     0.898    0.00000    
     0.000     0.906    0.00000    
     0.000     0.913    0.00000    
     0.000     0.921    0.00000    
     0.000     0.929    0.00000    
     0.000     0.937    0.00000    
     0.000     0.945    0.00000    
     0.000     0.953    0.00000    
     0.000     0.961    0.00000    
     0.000     0.969    0.00000    
     0.000     0.976    0.00000    
     0.000     0.984    0.00000    
     0.000     0.992    0.00000    
     0.000     1.000    0.00000    
     0.008     0.000   0.247344E-01
     0.008     0.008   0.241226E-01
     0.008     0.016   0.235254E-01
     0.008     0.024   0.229427E-01
     0.008     0.031   0.223741E-01
     0.008     0.039   0.218192E-01
     0.008     0.047   0.212776E-01
     0.008     0.055   0.207492E-01
     0.008     0.063   0.202334E-01
     0.008     0.071   0.197301E-01
     0.008     0.079   0.192389E-01
     0.008     0.087   0.187596E-01
     0.008     0.094   0.182918E-01
     0.008     0.102   0.178353E-01
     0.008     0.110   0.173897E-01
     0.008     0.118   0.169549E-01
     0.008     0.126   0.165306E-01
     0.008     0.134   0.161165E-01
     0.008     0.142   0.157124E-01
     0.008     0.150   0.153179E-01
     0.008     0.157   0.149330E-01
     0.008     0.165   0.145573E-01
     0.008     0.173   0.141907E-01
     0.008     0.181   0.138329E-01
     0.008     0.189   0.134837E-01
     0.008     0.197   0.131429E-01
     0.008     0.205   0.128103E-01
     0.008     0.213   0.124857E-01
     0.008     0.220   0.121689E-01
     0.008     0.228   0.118597E-01
     0.008     0.236   0.115579E-01
     0.008     0.244   0.112634E-01
     0.008     0.252   0.109760E-01
     0.008     0.260   0.106954E-01
     0.008     0.268   0.104216E-01
     0.008     0.276   0.101544E-01
     0.008     0.283   0.989357E-02
     0.008     0.291   0.963898E-02
     0.008     0.299   0.939054E-02
     0.008     0.307   0.914802E-02
     0.008     0.315   0.891135E-02
     0.008     0.323   0.868031E-02
     0.008     0.331   0.845484E-02
     0.008     0.339   0.823473E-02
     0.008     0.346   0.801993E-02
     0.008     0.354   0.781022E-02
     0.008     0.362   0.760558E-02
     0.008     0.370   0.740577E-02
     0.008     0.378   0.721079E-02
     0.008     0.386   0.702041E-02
     0.008     0.394   0.683462E-02
     0.008     0.402   0.665320E-02
     0.008     0.409   0.647616E-02
     0.008     0.417   0.630328E-02
     0.008     0.425   0.613456E-02
     0.008     0.433   0.596978E-02
     0.008     0.441   0.580898E-02
     0.008     0.449   0.565192E-02
     0.008     0.457   0.549864E-02
     0.008     0.465   0.534892E-02
     0.008     0.472   0.520279E-02
     0.008     0.480   0.506004E-02
     0.008     0.488   0.492070E-02
     0.008     0.496   0.478458E-02
     0.008     0.504   0.465170E-02
     0.008     0.512   0.452187E-02
     0.008     0.520   0.439512E-02
     0.008     0.528   0.427126E-02
     0.008     0.535   0.415033E-02
     0.008     0.543   0.403214E-02
     0.008     0.551   0.391672E-02
     0.008     0.559   0.380391E-02
     0.008     0.567   0.369373E-02
     0.008     0.575   0.358600E-02
     0.008     0.583   0.348078E-02
     0.008     0.591   0.337788E-02
     0.008     0.598   0.327735E-02
     0.008     0.606   0.317901E-02
     0.008     0.614   0.308292E-02
     0.008     0.622   0.298890E-02
     0.008     0.630   0.289700E-02
     0.008     0.638   0.280705E-02
     0.008     0.646   0.271911E-02
     0.008     0.654   0.263302E-02
     0.008     0.661   0.254881E-02
     0.008     0.669   0.246633E-02
     0.008     0.677   0.238564E-02
     0.008     0.685   0.230657E-02
     0.008     0.693   0.222918E-02
     0.008     0.701   0.215331E-02
     0.008     0.709   0.207901E-02
     0.008     0.717   0.200615E-02
     0.008     0.724   0.193475E-02
     0.008     0.732   0.186469E-02
     0.008     0.740   0.179601E-02
     0.008     0.748   0.172856E-02
     0.008     0.756   0.166240E-02
     0.008     0.764   0.159739E-02
     0.008     0.772   0.153358E-02
     0.008     0.780   0.147082E-02
     0.008     0.787   0.140917E-02
     0.008     0.795   0.134851E-02
     0.008     0.803   0.128885E-02
     0.008     0.811   0.123010E-02
     0.008     0.819   0.117228E-02
     0.008     0.827   0.111528E-02
     0.008     0.835   0.105913E-02
     0.008     0.843   0.100372E-02
     0.008     0.850   0.949072E-03
     0.008     0.858   0.895095E-03
     0.008     0.866   0.841800E-03
     0.008     0.874   0.789101E-03
     0.008     0.882   0.737005E-03
     0.008     0.890   0.685432E-03
     0.008     0.898   0.634384E-03
     0.008     0.906   0.583786E-03
     0.008     0.913   0.533636E-03
     0.008     0.921   0.483866E-03
     0.008     0.929   0.434469E-03
     0.008     0.937   0.385380E-03
     0.008     0.945   0.336589E-03
     0.008     0.953   0.288038E-03
     0.008     0.961   0.239709E-03
     0.008     0.969   0.191551E-03
     0.008     0.976   0.143541E-03
     0.008     0.984   0.956333E-04
     0.008     0.992   0.477996E-04
     0.008     1.000    0.00000    
     0.016     0.000   0.494537E-01
     0.016     0.008   0.482303E-01
     0.016     0.016   0.470365E-01
     0.016     0.024   0.458715E-01
     0.016     0.031   0.447345E-01
     0.016     0.039   0.436250E-01
     0.016     0.047   0.425422E-01
     0.016     0.055   0.414856E-01
     0.016     0.063   0.404544E-01
     0.016     0.071   0.394481E-01
     0.016     0.079   0.384661E-01
     0.016     0.087   0.375077E-01
     0.016     0.094   0.365724E-01
     0.016     0.102   0.356596E-01
     0.016     0.110   0.347688E-01
     0.016     0.118   0.338995E-01
     0.016     0.126   0.330511E-01
     0.016     0.134   0.322231E-01
     0.016     0.142   0.314151E-01
     0.016     0.150   0.306265E-01
     0.016     0.157   0.298569E-01
     0.016     0.165   0.291058E-01
     0.016     0.173   0.283728E-01
     0.016     0.181   0.276574E-01
     0.016     0.189   0.269592E-01
     0.016     0.197   0.262778E-01
     0.016     0.205   0.256128E-01
     0.016     0.213   0.249638E-01
     0.016     0.220   0.243303E-01
     0.016     0.228   0.237121E-01
     0.016     0.236   0.231088E-01
     0.016     0.244   0.225199E-01
     0.016     0.252   0.219452E-01
     0.016     0.260   0.213843E-01
     0.016     0.268   0.208368E-01
     0.016     0.276   0.203026E-01
     0.016     0.283   0.197810E-01
     0.016     0.291   0.192721E-01
     0.016     0.299   0.187753E-01
     0.016     0.307   0.182905E-01
     0.016     0.315   0.178172E-01
     0.016     0.323   0.173553E-01
     0.016     0.331   0.169045E-01
     0.016     0.339   0.164645E-01
     0.016     0.346   0.160349E-01
     0.016     0.354   0.156157E-01
     0.016     0.362   0.152065E-01
     0.016     0.370   0.148071E-01
     0.016     0.378   0.144171E-01
     0.016     0.386   0.140366E-01
     0.016     0.394   0.136650E-01
     0.016     0.402   0.133024E-01
     0.016     0.409   0.129483E-01
     0.016     0.417   0.126028E-01
     0.016     0.425   0.122653E-01
     0.016     0.433   0.119360E-01
     0.016     0.441   0.116143E-01
     0.016     0.449   0.113004E-01
     0.016     0.457   0.109939E-01
     0.016     0.465   0.106946E-01
     0.016     0.472   0.104023E-01
     0.016     0.480   0.101170E-01
     0.016     0.488   0.983834E-02
     0.016     0.496   0.956629E-02
     0.016     0.504   0.930050E-02
     0.016     0.512   0.904103E-02
     0.016     0.520   0.878749E-02
     0.016     0.528   0.853996E-02
     0.016     0.535   0.829806E-02
     0.016     0.543   0.806186E-02
     0.016     0.551   0.783099E-02
     0.016     0.559   0.760554E-02
     0.016     0.567   0.738514E-02
     0.016     0.575   0.716987E-02
     0.016     0.583   0.695937E-02
     0.016     0.591   0.675374E-02
     0.016     0.598   0.655263E-02
     0.016     0.606   0.635613E-02
     0.016     0.614   0.616389E-02
     0.016     0.622   0.597602E-02
     0.016     0.630   0.579217E-02
     0.016     0.638   0.561244E-02
     0.016     0.646   0.543651E-02
     0.016     0.654   0.526447E-02
     0.016     0.661   0.509600E-02
     0.016     0.669   0.493120E-02
     0.016     0.677   0.476976E-02
     0.016     0.685   0.461177E-02
     0.016     0.693   0.445694E-02
     0.016     0.701   0.430535E-02
     0.016     0.709   0.415671E-02
     0.016     0.717   0.401111E-02
     0.016     0.724   0.386828E-02
     0.016     0.732   0.372829E-02
     0.016     0.740   0.359087E-02
     0.016     0.748   0.345611E-02
     0.016     0.756   0.332375E-02
     0.016     0.764   0.319385E-02
     0.016     0.772   0.306617E-02
     0.016     0.780   0.294079E-02
     0.016     0.787   0.281745E-02
     0.016     0.795   0.269623E-02
     0.016     0.803   0.257689E-02
     0.016     0.811   0.245949E-02
     0.016     0.819   0.234381E-02
     0.016     0.827   0.222991E-02
     0.016     0.835   0.211758E-02
     0.016     0.843   0.200685E-02
     0.016     0.850   0.189754E-02
     0.016     0.858   0.178967E-02
     0.016     0.866   0.168306E-02
     0.016     0.874   0.157774E-02
     0.016     0.882   0.147354E-02
     0.016     0.890   0.137046E-02
     0.016     0.898   0.126836E-02
     0.016     0.906   0.116723E-02
     0.016     0.913   0.106693E-02
     0.016     0.921   0.967451E-03
     0.016     0.929   0.868659E-03
     0.016     0.937   0.770537E-03
     0.016     0.945   0.672963E-03
     0.016     0.953   0.575908E-03
     0.016     0.961   0.479264E-03
     0.016     0.969   0.382990E-03
     0.016     0.976   0.286990E-03
     0.016     0.984   0.191211E-03
     0.016     0.992   0.955685E-04
     0.016     1.000    0.00000    
     0.024     0.000   0.741428E-01
     0.024     0.008   0.723086E-01
     0.024     0.016   0.705188E-01
     0.024     0.024   0.687721E-01
     0.024     0.031   0.670676E-01
     0.024     0.039   0.654041E-01
     0.024     0.047   0.637808E-01
     0.024     0.055   0.621967E-01
     0.024     0.063   0.606507E-01
     0.024     0.071   0.591420E-01
     0.024     0.079   0.576697E-01
     0.024     0.087   0.562328E-01
     0.024     0.094   0.548306E-01
     0.024     0.102   0.534621E-01
     0.024     0.110   0.521267E-01
     0.024     0.118   0.508233E-01
     0.024     0.126   0.495514E-01
     0.024     0.134   0.483100E-01
     0.024     0.142   0.470986E-01
     0.024     0.150   0.459163E-01
     0.024     0.157   0.447625E-01
     0.024     0.165   0.436364E-01
     0.024     0.173   0.425375E-01
     0.024     0.181   0.414649E-01
     0.024     0.189   0.404182E-01
     0.024     0.197   0.393966E-01
     0.024     0.205   0.383996E-01
     0.024     0.213   0.374265E-01
     0.024     0.220   0.364769E-01
     0.024     0.228   0.355500E-01
     0.024     0.236   0.346455E-01
     0.024     0.244   0.337626E-01
     0.024     0.252   0.329011E-01
     0.024     0.260   0.320601E-01
     0.024     0.268   0.312394E-01
     0.024     0.276   0.304383E-01
     0.024     0.283   0.296565E-01
     0.024     0.291   0.288934E-01
     0.024     0.299   0.281486E-01
     0.024     0.307   0.274217E-01
     0.024     0.315   0.267122E-01
     0.024     0.323   0.260197E-01
     0.024     0.331   0.253438E-01
     0.024     0.339   0.246840E-01
     0.024     0.346   0.240402E-01
     0.024     0.354   0.234116E-01
     0.024     0.362   0.227981E-01
     0.024     0.370   0.221992E-01
     0.024     0.378   0.216147E-01
     0.024     0.386   0.210440E-01
     0.024     0.394   0.204871E-01
     0.024     0.402   0.199433E-01
     0.024     0.409   0.194126E-01
     0.024     0.417   0.188944E-01
     0.024     0.425   0.183887E-01
     0.024     0.433   0.178947E-01
     0.024     0.441   0.174127E-01
     0.024     0.449   0.169419E-01
     0.024     0.457   0.164825E-01
     0.024     0.465   0.160337E-01
     0.024     0.472   0.155956E-01
     0.024     0.480   0.151677E-01
     0.024     0.488   0.147501E-01
     0.024     0.496   0.143420E-01
     0.024     0.504   0.139437E-01
     0.024     0.512   0.135545E-01
     0.024     0.520   0.131746E-01
     0.024     0.528   0.128033E-01
     0.024     0.535   0.124408E-01
     0.024     0.543   0.120865E-01
     0.024     0.551   0.117406E-01
     0.024     0.559   0.114024E-01
     0.024     0.567   0.110721E-01
     0.024     0.575   0.107492E-01
     0.024     0.583   0.104338E-01
     0.024     0.591   0.101254E-01
     0.024     0.598   0.982402E-02
     0.024     0.606   0.952925E-02
     0.024     0.614   0.924121E-02
     0.024     0.622   0.895938E-02
     0.024     0.630   0.868391E-02
     0.024     0.638   0.841429E-02
     0.024     0.646   0.815069E-02
     0.024     0.654   0.789260E-02
     0.024     0.661   0.764018E-02
     0.024     0.669   0.739296E-02
     0.024     0.677   0.715107E-02
     0.024     0.685   0.691406E-02
     0.024     0.693   0.668207E-02
     0.024     0.701   0.645466E-02
     0.024     0.709   0.623195E-02
     0.024     0.717   0.601353E-02
     0.024     0.724   0.579952E-02
     0.024     0.732   0.558951E-02
     0.024     0.740   0.538362E-02
     0.024     0.748   0.518146E-02
     0.024     0.756   0.498314E-02
     0.024     0.764   0.478827E-02
     0.024     0.772   0.459697E-02
     0.024     0.780   0.440887E-02
     0.024     0.787   0.422407E-02
     0.024     0.795   0.404222E-02
     0.024     0.803   0.386341E-02
     0.024     0.811   0.368730E-02
     0.024     0.819   0.351398E-02
     0.024     0.827   0.334312E-02
     0.024     0.835   0.317479E-02
     0.024     0.843   0.300870E-02
     0.024     0.850   0.284489E-02
     0.024     0.858   0.268309E-02
     0.024     0.866   0.252334E-02
     0.024     0.874   0.236537E-02
     0.024     0.882   0.220921E-02
     0.024     0.890   0.205462E-02
     0.024     0.898   0.190160E-02
     0.024     0.906   0.174993E-02
     0.024     0.913   0.159960E-02
     0.024     0.921   0.145041E-02
     0.024     0.929   0.130234E-02
     0.024     0.937   0.115520E-02
     0.024     0.945   0.100894E-02
     0.024     0.953   0.863409E-03
     0.024     0.961   0.718540E-03
     0.024     0.969   0.574184E-03
     0.024     0.976   0.430272E-03
     0.024     0.984   0.286666E-03
     0.024     0.992   0.143282E-03
     0.024     1.000    0.00000    
     0.031     0.000   0.987864E-01
     0.031     0.008   0.963427E-01
     0.031     0.016   0.939579E-01
     0.031     0.024   0.916307E-01
     0.031     0.031   0.893596E-01
     0.031     0.039   0.871433E-01
     0.031     0.047   0.849804E-01
     0.031     0.055   0.828697E-01
     0.031     0.063   0.808099E-01
     0.031     0.071   0.787997E-01
     0.031     0.079   0.768380E-01
     0.031     0.087   0.749236E-01
     0.031     0.094   0.730552E-01
     0.031     0.102   0.712320E-01
     0.031     0.110   0.694525E-01
     0.031     0.118   0.677161E-01
     0.031     0.126   0.660213E-01
     0.031     0.134   0.643674E-01
     0.031     0.142   0.627533E-01
     0.031     0.150   0.611781E-01
     0.031     0.157   0.596407E-01
     0.031     0.165   0.581404E-01
     0.031     0.173   0.566761E-01
     0.031     0.181   0.552471E-01
     0.031     0.189   0.538524E-01
     0.031     0.197   0.524913E-01
     0.031     0.205   0.511629E-01
     0.031     0.213   0.498665E-01
     0.031     0.220   0.486011E-01
     0.031     0.228   0.473663E-01
     0.031     0.236   0.461610E-01
     0.031     0.244   0.449848E-01
     0.031     0.252   0.438367E-01
     0.031     0.260   0.427163E-01
     0.031     0.268   0.416227E-01
     0.031     0.276   0.405555E-01
     0.031     0.283   0.395137E-01
     0.031     0.291   0.384971E-01
     0.031     0.299   0.375046E-01
     0.031     0.307   0.365362E-01
     0.031     0.315   0.355908E-01
     0.031     0.323   0.346682E-01
     0.031     0.331   0.337676E-01
     0.031     0.339   0.328887E-01
     0.031     0.346   0.320306E-01
     0.031     0.354   0.311932E-01
     0.031     0.362   0.303757E-01
     0.031     0.370   0.295779E-01
     0.031     0.378   0.287990E-01
     0.031     0.386   0.280388E-01
     0.031     0.394   0.272966E-01
     0.031     0.402   0.265722E-01
     0.031     0.409   0.258649E-01
     0.031     0.417   0.251747E-01
     0.031     0.425   0.245006E-01
     0.031     0.433   0.238427E-01
     0.031     0.441   0.232003E-01
     0.031     0.449   0.225732E-01
     0.031     0.457   0.219608E-01
     0.031     0.465   0.213631E-01
     0.031     0.472   0.207792E-01
     0.031     0.480   0.202093E-01
     0.031     0.488   0.196526E-01
     0.031     0.496   0.191092E-01
     0.031     0.504   0.185782E-01
     0.031     0.512   0.180599E-01
     0.031     0.520   0.175535E-01
     0.031     0.528   0.170590E-01
     0.031     0.535   0.165758E-01
     0.031     0.543   0.161040E-01
     0.031     0.551   0.156428E-01
     0.031     0.559   0.151925E-01
     0.031     0.567   0.147522E-01
     0.031     0.575   0.143222E-01
     0.031     0.583   0.139017E-01
     0.031     0.591   0.134910E-01
     0.031     0.598   0.130892E-01
     0.031     0.606   0.126967E-01
     0.031     0.614   0.123127E-01
     0.031     0.622   0.119374E-01
     0.031     0.630   0.115702E-01
     0.031     0.638   0.112112E-01
     0.031     0.646   0.108597E-01
     0.031     0.654   0.105161E-01
     0.031     0.661   0.101795E-01
     0.031     0.669   0.985034E-02
     0.031     0.677   0.952785E-02
     0.031     0.685   0.921226E-02
     0.031     0.693   0.890297E-02
     0.031     0.701   0.860016E-02
     0.031     0.709   0.830324E-02
     0.031     0.717   0.801241E-02
     0.031     0.724   0.772709E-02
     0.031     0.732   0.744745E-02
     0.031     0.740   0.717295E-02
     0.031     0.748   0.690376E-02
     0.031     0.756   0.663936E-02
     0.031     0.764   0.637988E-02
     0.031     0.772   0.612484E-02
     0.031     0.780   0.587438E-02
     0.031     0.787   0.562801E-02
     0.031     0.795   0.538585E-02
     0.031     0.803   0.514747E-02
     0.031     0.811   0.491296E-02
     0.031     0.819   0.468189E-02
     0.031     0.827   0.445437E-02
     0.031     0.835   0.422997E-02
     0.031     0.843   0.400879E-02
     0.031     0.850   0.379043E-02
     0.031     0.858   0.357495E-02
     0.031     0.866   0.336200E-02
     0.031     0.874   0.315162E-02
     0.031     0.882   0.294347E-02
     0.031     0.890   0.273757E-02
     0.031     0.898   0.253362E-02
     0.031     0.906   0.233161E-02
     0.031     0.913   0.213125E-02
     0.031     0.921   0.193253E-02
     0.031     0.929   0.173519E-02
     0.031     0.937   0.153919E-02
     0.031     0.945   0.134428E-02
     0.031     0.953   0.115041E-02
     0.031     0.961   0.957356E-03
     0.031     0.969   0.765044E-03
     0.031     0.976   0.573277E-03
     0.031     0.984   0.381954E-03
     0.031     0.992   0.190903E-03
     0.031     1.000    0.00000    
     0.039     0.000   0.123370    
     0.039     0.008   0.120318    
     0.039     0.016   0.117340    
     0.039     0.024   0.114433    
     0.039     0.031   0.111597    
     0.039     0.039   0.108829    
     0.039     0.047   0.106128    
     0.039     0.055   0.103492    
     0.039     0.063   0.100920    
     0.039     0.071   0.984092E-01
     0.039     0.079   0.959593E-01
     0.039     0.087   0.935684E-01
     0.039     0.094   0.912352E-01
     0.039     0.102   0.889582E-01
     0.039     0.110   0.867360E-01
     0.039     0.118   0.845673E-01
     0.039     0.126   0.824509E-01
     0.039     0.134   0.803853E-01
     0.039     0.142   0.783696E-01
     0.039     0.150   0.764023E-01
     0.039     0.157   0.744825E-01
     0.039     0.165   0.726087E-01
     0.039     0.173   0.707801E-01
     0.039     0.181   0.689954E-01
     0.039     0.189   0.672537E-01
     0.039     0.197   0.655538E-01
     0.039     0.205   0.638949E-01
     0.039     0.213   0.622758E-01
     0.039     0.220   0.606957E-01
     0.039     0.228   0.591534E-01
     0.039     0.236   0.576483E-01
     0.039     0.244   0.561792E-01
     0.039     0.252   0.547456E-01
     0.039     0.260   0.533462E-01
     0.039     0.268   0.519807E-01
     0.039     0.276   0.506477E-01
     0.039     0.283   0.493468E-01
     0.039     0.291   0.480770E-01
     0.039     0.299   0.468379E-01
     0.039     0.307   0.456282E-01
     0.039     0.315   0.444478E-01
     0.039     0.323   0.432954E-01
     0.039     0.331   0.421708E-01
     0.039     0.339   0.410729E-01
     0.039     0.346   0.400016E-01
     0.039     0.354   0.389556E-01
     0.039     0.362   0.379349E-01
     0.039     0.370   0.369383E-01
     0.039     0.378   0.359658E-01
     0.039     0.386   0.350162E-01
     0.039     0.394   0.340895E-01
     0.039     0.402   0.331847E-01
     0.039     0.409   0.323016E-01
     0.039     0.417   0.314393E-01
     0.039     0.425   0.305978E-01
     0.039     0.433   0.297759E-01
     0.039     0.441   0.289738E-01
     0.039     0.449   0.281905E-01
     0.039     0.457   0.274259E-01
     0.039     0.465   0.266792E-01
     0.039     0.472   0.259503E-01
     0.039     0.480   0.252383E-01
     0.039     0.488   0.245433E-01
     0.039     0.496   0.238644E-01
     0.039     0.504   0.232016E-01
     0.039     0.512   0.225540E-01
     0.039     0.520   0.219218E-01
     0.039     0.528   0.213041E-01
     0.039     0.535   0.207009E-01
     0.039     0.543   0.201114E-01
     0.039     0.551   0.195357E-01
     0.039     0.559   0.189730E-01
     0.039     0.567   0.184235E-01
     0.039     0.575   0.178862E-01
     0.039     0.583   0.173613E-01
     0.039     0.591   0.168481E-01
     0.039     0.598   0.163467E-01
     0.039     0.606   0.158562E-01
     0.039     0.614   0.153769E-01
     0.039     0.622   0.149079E-01
     0.039     0.630   0.144496E-01
     0.039     0.638   0.140009E-01
     0.039     0.646   0.135623E-01
     0.039     0.654   0.131329E-01
     0.039     0.661   0.127129E-01
     0.039     0.669   0.123015E-01
     0.039     0.677   0.118990E-01
     0.039     0.685   0.115046E-01
     0.039     0.693   0.111186E-01
     0.039     0.701   0.107402E-01
     0.039     0.709   0.103696E-01
     0.039     0.717   0.100062E-01
     0.039     0.724   0.965010E-02
     0.039     0.732   0.930065E-02
     0.039     0.740   0.895807E-02
     0.039     0.748   0.862168E-02
     0.039     0.756   0.829168E-02
     0.039     0.764   0.796743E-02
     0.039     0.772   0.764912E-02
     0.039     0.780   0.733614E-02
     0.039     0.787   0.702864E-02
     0.039     0.795   0.672605E-02
     0.039     0.803   0.642851E-02
     0.039     0.811   0.613548E-02
     0.039     0.819   0.584707E-02
     0.039     0.827   0.556277E-02
     0.039     0.835   0.528268E-02
     0.039     0.843   0.500632E-02
     0.039     0.850   0.473375E-02
     0.039     0.858   0.446453E-02
     0.039     0.866   0.419871E-02
     0.039     0.874   0.393586E-02
     0.039     0.882   0.367601E-02
     0.039     0.890   0.341878E-02
     0.039     0.898   0.316416E-02
     0.039     0.906   0.291179E-02
     0.039     0.913   0.266166E-02
     0.039     0.921   0.241341E-02
     0.039     0.929   0.216703E-02
     0.039     0.937   0.192219E-02
     0.039     0.945   0.167883E-02
     0.039     0.953   0.143667E-02
     0.039     0.961   0.119561E-02
     0.039     0.969   0.955412E-03
     0.039     0.976   0.715949E-03
     0.039     0.984   0.476997E-03
     0.039     0.992   0.238413E-03
     0.039     1.000    0.00000    
     0.047     0.000   0.147877    
     0.047     0.008   0.144219    
     0.047     0.016   0.140649    
     0.047     0.024   0.137166    
     0.047     0.031   0.133766    
     0.047     0.039   0.130448    
     0.047     0.047   0.127211    
     0.047     0.055   0.124051    
     0.047     0.063   0.120968    
     0.047     0.071   0.117958    
     0.047     0.079   0.115022    
     0.047     0.087   0.112156    
     0.047     0.094   0.109359    
     0.047     0.102   0.106630    
     0.047     0.110   0.103966    
     0.047     0.118   0.101367    
     0.047     0.126   0.988299E-01
     0.047     0.134   0.963542E-01
     0.047     0.142   0.939379E-01
     0.047     0.150   0.915799E-01
     0.047     0.157   0.892785E-01
     0.047     0.165   0.870327E-01
     0.047     0.173   0.848407E-01
     0.047     0.181   0.827016E-01
     0.047     0.189   0.806138E-01
     0.047     0.197   0.785764E-01
     0.047     0.205   0.765877E-01
     0.047     0.213   0.746471E-01
     0.047     0.220   0.727529E-01
     0.047     0.228   0.709045E-01
     0.047     0.236   0.691002E-01
     0.047     0.244   0.673395E-01
     0.047     0.252   0.656209E-01
     0.047     0.260   0.639438E-01
     0.047     0.268   0.623066E-01
     0.047     0.276   0.607091E-01
     0.047     0.283   0.591496E-01
     0.047     0.291   0.576278E-01
     0.047     0.299   0.561422E-01
     0.047     0.307   0.546925E-01
     0.047     0.315   0.532773E-01
     0.047     0.323   0.518963E-01
     0.047     0.331   0.505480E-01
     0.047     0.339   0.492324E-01
     0.047     0.346   0.479479E-01
     0.047     0.354   0.466944E-01
     0.047     0.362   0.454706E-01
     0.047     0.370   0.442764E-01
     0.047     0.378   0.431103E-01
     0.047     0.386   0.419724E-01
     0.047     0.394   0.408613E-01
     0.047     0.402   0.397770E-01
     0.047     0.409   0.387182E-01
     0.047     0.417   0.376850E-01
     0.047     0.425   0.366759E-01
     0.047     0.433   0.356912E-01
     0.047     0.441   0.347294E-01
     0.047     0.449   0.337908E-01
     0.047     0.457   0.328740E-01
     0.047     0.465   0.319792E-01
     0.047     0.472   0.311052E-01
     0.047     0.480   0.302521E-01
     0.047     0.488   0.294188E-01