Title="Temperature Data"
Variables="X","Y","T"
 
Zone I=    64, J=    64, F=POINT
     0.000     0.000    0.00000    
     0.000     0.016    0.00000    
     0.000     0.032    0.00000    
     0.000     0.048    0.00000    
     0.000     0.063    0.00000    
     0.000     0.079    0.00000    
     0.000     0.095    0.00000    
     0.000     0.111    0.00000    
     0.000     0.127    0.00000    
     0.000     0.143    0.00000    
     0.000     0.159    0.00000    
     0.000     0.175    0.00000    
     0.000     0.190    0.00000    
     0.000     0.206    0.00000    
     0.000     0.222    0.00000    
     0.000     0.238    0.00000    
     0.000     0.254    0.00000    
     0.000     0.270    0.00000    
     0.000     0.286    0.00000    
     0.000     0.302    0.00000    
     0.000     0.317    0.00000    
     0.000     0.333    0.00000    
     0.000     0.349    0.00000    
     0.000     0.365    0.00000    
     0.000     0.381    0.00000    
     0.000     0.397    0.00000    
     0.000     0.413    0.00000    
     0.000     0.429    0.00000    
     0.000     0.444    0.00000    
     0.000     0.460    0.00000    
     0.000     0.476    0.00000    
     0.000     0.492    0.00000    
     0.000     0.508    0.00000    
     0.000     0.524    0.00000    
     0.000     0.540    0.00000    
     0.000     0.556    0.00000    
     0.000     0.571    0.00000    
     0.000     0.587    0.00000    
     0.000     0.603    0.00000    
     0.000     0.619    0.00000    
     0.000     0.635    0.00000    
     0.000     0.651    0.00000    
     0.000     0.667    0.00000    
     0.000     0.683    0.00000    
     0.000     0.698    0.00000    
     0.000     0.714    0.00000    
     0.000     0.730    0.00000    
     0.000     0.746    0.00000    
     0.000     0.762    0.00000    
     0.000     0.778    0.00000    
     0.000     0.794    0.00000    
     0.000     0.810    0.00000    
     0.000     0.825    0.00000    
     0.000     0.841    0.00000    
     0.000     0.857    0.00000    
     0.000     0.873    0.00000    
     0.000     0.889    0.00000    
     0.000     0.905    0.00000    
     0.000     0.921    0.00000    
     0.000     0.937    0.00000    
     0.000     0.952    0.00000    
     0.000     0.968    0.00000    
     0.000     0.984    0.00000    
     0.000     1.000    0.00000    
     0.016     0.000    0.00000    
     0.016     0.016   0.341121E+16
     0.016     0.032   0.998332E+13
     0.016     0.048   0.144565E+11
     0.016     0.063   0.138091E+08
     0.016     0.079    10588.3    
     0.016     0.095   0.109089E+07
     0.016     0.111   0.128931E+10
     0.016     0.127   0.128962E+13
     0.016     0.143   0.105229E+16
     0.016     0.159   0.659572E+18
     0.016     0.175   0.283478E+21
     0.016     0.190   0.628738E+23
     0.016     0.206   0.283478E+21
     0.016     0.222   0.659572E+18
     0.016     0.238   0.105229E+16
     0.016     0.254   0.129121E+13
     0.016     0.270   0.159153E+13
     0.016     0.286   0.129734E+16
     0.016     0.302   0.812916E+18
     0.016     0.317   0.349225E+21
     0.016     0.333   0.774071E+23
     0.016     0.349   0.349225E+21
     0.016     0.365   0.812916E+18
     0.016     0.381   0.129734E+16
     0.016     0.397   0.159145E+13
     0.016     0.413   0.121634E+13
     0.016     0.429   0.991274E+15
     0.016     0.444   0.621389E+18
     0.016     0.460   0.267108E+21
     0.016     0.476   0.592555E+23
     0.016     0.492   0.267108E+21
     0.016     0.508   0.621389E+18
     0.016     0.524   0.991274E+15
     0.016     0.540   0.121604E+13
     0.016     0.556   0.129006E+13
     0.016     0.571   0.105173E+16
     0.016     0.587   0.659282E+18
     0.016     0.603   0.283393E+21
     0.016     0.619   0.628674E+23
     0.016     0.635   0.283393E+21
     0.016     0.651   0.659282E+18
     0.016     0.667   0.105173E+16
     0.016     0.683   0.129073E+13
     0.016     0.698   0.189027E+13
     0.016     0.714   0.154110E+16
     0.016     0.730   0.965707E+18
     0.016     0.746   0.414895E+21
     0.016     0.762   0.919725E+23
     0.016     0.778   0.414895E+21
     0.016     0.794   0.965707E+18
     0.016     0.810   0.154110E+16
     0.016     0.825   0.188898E+13
     0.016     0.841   0.372833E+10
     0.016     0.857   0.254077E+13
     0.016     0.873   0.260448E+16
     0.016     0.889   0.176151E+19
     0.016     0.905   0.589610E+21
     0.016     0.921   0.176151E+19
     0.016     0.937   0.260449E+16
     0.016     0.952   0.129805E+14
     0.016     0.968   0.425814E+16
     0.016     0.984   0.889287E+18
     0.016     1.000    0.00000    
     0.032     0.000    0.00000    
     0.032     0.016   0.230713E+19
     0.032     0.032   0.682243E+16
     0.032     0.048   0.998333E+13
     0.032     0.063   0.963769E+10
     0.032     0.079   0.690456E+07
     0.032     0.095    9518.98    
     0.032     0.111   0.654526E+07
     0.032     0.127   0.644654E+10
     0.032     0.143   0.515845E+13
     0.032     0.159   0.315687E+16
     0.032     0.175   0.131914E+19
     0.032     0.190   0.283480E+21
     0.032     0.206   0.131914E+19
     0.032     0.222   0.315687E+16
     0.032     0.238   0.515845E+13
     0.032     0.254   0.645461E+10
     0.032     0.270   0.795681E+10
     0.032     0.286   0.636094E+13
     0.032     0.302   0.389201E+16
     0.032     0.317   0.162583E+19
     0.032     0.333   0.349228E+21
     0.032     0.349   0.162583E+19
     0.032     0.365   0.389201E+16
     0.032     0.381   0.636094E+13
     0.032     0.397   0.795643E+10
     0.032     0.413   0.608014E+10
     0.032     0.429   0.485900E+13
     0.032     0.444   0.297382E+16
     0.032     0.460   0.124278E+19
     0.032     0.476   0.267110E+21
     0.032     0.492   0.124278E+19
     0.032     0.508   0.297382E+16
     0.032     0.524   0.485900E+13
     0.032     0.540   0.607861E+10
     0.032     0.556   0.644860E+10
     0.032     0.571   0.515536E+13
     0.032     0.587   0.315518E+16
     0.032     0.603   0.131856E+19
     0.032     0.619   0.283395E+21
     0.032     0.635   0.131856E+19
     0.032     0.651   0.315518E+16
     0.032     0.667   0.515536E+13
     0.032     0.683   0.645203E+10
     0.032     0.698   0.945013E+10
     0.032     0.714   0.755589E+13
     0.032     0.730   0.462330E+16
     0.032     0.746   0.193141E+19
     0.032     0.762   0.414898E+21
     0.032     0.778   0.193141E+19
     0.032     0.794   0.462330E+16
     0.032     0.810   0.755589E+13
     0.032     0.825   0.944360E+10
     0.032     0.841   0.148604E+08
     0.032     0.857   0.735841E+10
     0.032     0.873   0.762230E+13
     0.032     0.889   0.520895E+16
     0.032     0.905   0.176151E+19
     0.032     0.921   0.520896E+16
     0.032     0.937   0.145822E+14
     0.032     0.952   0.425817E+16
     0.032     0.968   0.177858E+19
     0.032     0.984   0.381970E+21
     0.032     1.000    0.00000    
     0.048     0.000    0.00000    
     0.048     0.016   0.772242E+21
     0.048     0.032   0.230714E+19
     0.048     0.048   0.341123E+16
     0.048     0.063   0.332779E+13
     0.048     0.079   0.240943E+10
     0.048     0.095   0.138093E+07
     0.048     0.111    17464.1    
     0.048     0.127   0.163631E+08
     0.048     0.143   0.128931E+11
     0.048     0.159   0.773767E+13
     0.048     0.175   0.315688E+16
     0.048     0.190   0.659579E+18
     0.048     0.206   0.315688E+16
     0.048     0.222   0.773767E+13
     0.048     0.238   0.128931E+11
     0.048     0.254   0.163839E+08
     0.048     0.270   0.201983E+08
     0.048     0.286   0.159005E+11
     0.048     0.302   0.954141E+13
     0.048     0.317   0.389202E+16
     0.048     0.333   0.812924E+18
     0.048     0.349   0.389202E+16
     0.048     0.365   0.954141E+13
     0.048     0.381   0.159005E+11
     0.048     0.397   0.201973E+08
     0.048     0.413   0.154330E+08
     0.048     0.429   0.121441E+11
     0.048     0.444   0.728850E+13
     0.048     0.460   0.297382E+16
     0.048     0.476   0.621395E+18
     0.048     0.492   0.297382E+16
     0.048     0.508   0.728850E+13
     0.048     0.524   0.121441E+11
     0.048     0.540   0.154290E+08
     0.048     0.556   0.163682E+08
     0.048     0.571   0.128849E+11
     0.048     0.587   0.773305E+13
     0.048     0.603   0.315519E+16
     0.048     0.619   0.659288E+18
     0.048     0.635   0.315519E+16
     0.048     0.651   0.773305E+13
     0.048     0.667   0.128849E+11
     0.048     0.683   0.163770E+08
     0.048     0.698   0.239887E+08
     0.048     0.714   0.188872E+11
     0.048     0.730   0.113338E+14
     0.048     0.746   0.462331E+16
     0.048     0.762   0.965717E+18
     0.048     0.778   0.462331E+16
     0.048     0.794   0.113338E+14
     0.048     0.810   0.188872E+11
     0.048     0.825   0.239719E+08
     0.048     0.841    32102.8    
     0.048     0.857   0.105433E+08
     0.048     0.873   0.110376E+11
     0.048     0.889   0.762231E+13
     0.048     0.905   0.260449E+16
     0.048     0.921   0.936230E+13
     0.048     0.937   0.141941E+16
     0.048     0.952   0.889298E+18
     0.048     0.968   0.381973E+21
     0.048     0.984   0.846449E+23
     0.048     1.000    0.00000    
     0.063     0.000    0.00000    
     0.063     0.016   0.230713E+19
     0.063     0.032   0.682243E+16
     0.063     0.048   0.998333E+13
     0.063     0.063   0.963769E+10
     0.063     0.079   0.690456E+07
     0.063     0.095    3915.13    
     0.063     0.111    30.8728    
     0.063     0.127    28019.3    
     0.063     0.143   0.218175E+08
     0.063     0.159   0.128931E+11
     0.063     0.175   0.515846E+13
     0.063     0.190   0.105231E+16
     0.063     0.206   0.515846E+13
     0.063     0.222   0.128931E+11
     0.063     0.238   0.218175E+08
     0.063     0.254    28055.1    
     0.063     0.270    34588.1    
     0.063     0.286   0.269086E+08
     0.063     0.302   0.159005E+11
     0.063     0.317   0.636096E+13
     0.063     0.333   0.129735E+16
     0.063     0.349   0.636096E+13
     0.063     0.365   0.159005E+11
     0.063     0.381   0.269086E+08
     0.063     0.397    34586.4    
     0.063     0.413    26426.6    
     0.063     0.429   0.205497E+08
     0.063     0.444   0.121441E+11
     0.063     0.460   0.485902E+13
     0.063     0.476   0.991285E+15
     0.063     0.492   0.485902E+13
     0.063     0.508   0.121441E+11
     0.063     0.524   0.205497E+08
     0.063     0.540    26419.8    
     0.063     0.556    28027.9    
     0.063     0.571   0.218031E+08
     0.063     0.587   0.128849E+11
     0.063     0.603   0.515538E+13
     0.063     0.619   0.105174E+16
     0.063     0.635   0.515538E+13
     0.063     0.651   0.128849E+11
     0.063     0.667   0.218031E+08
     0.063     0.683    28043.1    
     0.063     0.698    41078.7    
     0.063     0.714   0.319626E+08
     0.063     0.730   0.188872E+11
     0.063     0.746   0.755591E+13
     0.063     0.762   0.154112E+16
     0.063     0.778   0.755591E+13
     0.063     0.794   0.188872E+11
     0.063     0.810   0.319626E+08
     0.063     0.825    41049.7    
     0.063     0.841    49.5363    
     0.063     0.857    9964.03    
     0.063     0.873   0.105433E+08
     0.063     0.889   0.735842E+10
     0.063     0.905   0.254079E+13
     0.063     0.921   0.160577E+11
     0.063     0.937   0.695990E+13
     0.063     0.952   0.425816E+16
     0.063     0.968   0.177858E+19
     0.063     0.984   0.381970E+21
     0.063     1.000    0.00000    
     0.079     0.000    0.00000    
     0.079     0.016   0.341122E+16
     0.079     0.032   0.998332E+13
     0.079     0.048   0.144565E+11
     0.079     0.063   0.138091E+08
     0.079     0.079    9787.76    
     0.079     0.095    5.49034    
     0.079     0.111   0.404089E-01
     0.079     0.127    36.3034    
     0.079     0.143    28019.3    
     0.079     0.159   0.163631E+08
     0.079     0.175   0.644656E+10
     0.079     0.190   0.128963E+13
     0.079     0.206   0.644656E+10
     0.079     0.222   0.163631E+08
     0.079     0.238    28019.3    
     0.079     0.254    36.3501    
     0.079     0.270    44.8156    
     0.079     0.286    34559.1    
     0.079     0.302   0.201815E+08
     0.079     0.317   0.795030E+10
     0.079     0.333   0.159026E+13
     0.079     0.349   0.795030E+10
     0.079     0.365   0.201815E+08
     0.079     0.381    34559.1    
     0.079     0.397    44.8134    
     0.079     0.413    34.2398    
     0.079     0.429    26390.7    
     0.079     0.444   0.154123E+08
     0.079     0.460   0.607209E+10
     0.079     0.476   0.121477E+13
     0.079     0.492   0.607209E+10
     0.079     0.508   0.154123E+08
     0.079     0.524    26390.7    
     0.079     0.540    34.2309    
     0.079     0.556    36.3145    
     0.079     0.571    28000.5    
     0.079     0.587   0.163524E+08
     0.079     0.603   0.644246E+10
     0.079     0.619   0.128886E+13
     0.079     0.635   0.644246E+10
     0.079     0.651   0.163524E+08
     0.079     0.667    28000.5    
     0.079     0.683    36.3343    
     0.079     0.698    53.2252    
     0.079     0.714    41049.7    
     0.079     0.730   0.239720E+08
     0.079     0.746   0.944363E+10
     0.079     0.762   0.188900E+13
     0.079     0.778   0.944363E+10
     0.079     0.794   0.239720E+08
     0.079     0.810    41049.7    
     0.079     0.825    53.1873    
     0.079     0.841   0.603291E-01
     0.079     0.857    6.98650    
     0.079     0.873    7473.01    
     0.079     0.889   0.527167E+07
     0.079     0.905   0.183963E+10
     0.079     0.921   0.273550E+08
     0.079     0.937   0.173985E+11
     0.079     0.952   0.104398E+14
     0.079     0.968   0.425815E+16
     0.079     0.984   0.889289E+18
     0.079     1.000    0.00000    
     0.095     0.000    0.00000    
     0.095     0.016   0.332778E+13
     0.095     0.032   0.963768E+10
     0.095     0.048   0.138091E+08
     0.095     0.063    13050.3    
     0.095     0.079    9.15050    
     0.095     0.095   0.507708E-02
     0.095     0.111   0.420013E-04
     0.095     0.127   0.378704E-01
     0.095     0.143    29.0428    
     0.095     0.159    16811.6    
     0.095     0.175   0.654528E+07
     0.095     0.190   0.128933E+10
     0.095     0.206   0.654528E+07
     0.095     0.222    16811.6    
     0.095     0.238    29.0428    
     0.095     0.254   0.379193E-01
     0.095     0.270   0.467508E-01
     0.095     0.286    35.8222    
     0.095     0.302    20735.5    
     0.095     0.317   0.807262E+07
     0.095     0.333   0.159008E+10
     0.095     0.349   0.807262E+07
     0.095     0.365    20735.5    
     0.095     0.381    35.8222    
     0.095     0.397   0.467485E-01
     0.095     0.413   0.357178E-01
     0.095     0.429    27.3545    
     0.095     0.444    15834.5    
     0.095     0.460   0.616493E+07
     0.095     0.476   0.121443E+10
     0.095     0.492   0.616493E+07
     0.095     0.508    15834.5    
     0.095     0.524    27.3545    
     0.095     0.540   0.357085E-01
     0.095     0.556   0.378819E-01
     0.095     0.571    29.0231    
     0.095     0.587    16800.3    
     0.095     0.603   0.654097E+07
     0.095     0.619   0.128851E+10
     0.095     0.635   0.654097E+07
     0.095     0.651    16800.3    
     0.095     0.667    29.0231    
     0.095     0.683   0.379027E-01
     0.095     0.698   0.555233E-01
     0.095     0.714    42.5499    
     0.095     0.730    24629.8    
     0.095     0.746   0.958882E+07
     0.095     0.762   0.188875E+10
     0.095     0.778   0.958882E+07
     0.095     0.794    24629.8    
     0.095     0.810    42.5499    
     0.095     0.825   0.554836E-01
     0.095     0.841   0.607936E-04
     0.095     0.857   0.387641E-02
     0.095     0.873    4.19189    
     0.095     0.889    2989.23    
     0.095     0.905   0.105437E+07
     0.095     0.921    40805.6    
     0.095     0.937   0.294444E+08
     0.095     0.952   0.173985E+11
     0.095     0.968   0.695987E+13
     0.095     0.984   0.141939E+16
     0.095     1.000    0.00000    
     0.111     0.000    0.00000    
     0.111     0.016   0.240942E+10
     0.111     0.032   0.690455E+07
     0.111     0.048    9787.76    
     0.111     0.063    9.15050    
     0.111     0.079   0.634631E-02
     0.111     0.095   0.348251E-05
     0.111     0.111   0.363192E-07
     0.111     0.127   0.330664E-04
     0.111     0.143   0.252470E-01
     0.111     0.159    14.5214    
     0.111     0.175    5603.90    
     0.111     0.190   0.109089E+07
     0.111     0.206    5603.90    
     0.111     0.222    14.5214    
     0.111     0.238   0.252470E-01
     0.111     0.254   0.331092E-04
     0.111     0.270   0.408206E-04
     0.111     0.286   0.311408E-01
     0.111     0.302    17.9111    
     0.111     0.317    6911.86    
     0.111     0.333   0.134545E+07
     0.111     0.349    6911.86    
     0.111     0.365    17.9111    
     0.111     0.381   0.311408E-01
     0.111     0.397   0.408186E-04
     0.111     0.413   0.311869E-04
     0.111     0.429   0.237792E-01
     0.111     0.444    13.6773    
     0.111     0.460    5278.18    
     0.111     0.476   0.102750E+07
     0.111     0.492    5278.18    
     0.111     0.508    13.6773    
     0.111     0.524   0.237792E-01
     0.111     0.540   0.311787E-04
     0.111     0.556   0.330765E-04
     0.111     0.571   0.252297E-01
     0.111     0.587    14.5116    
     0.111     0.603    5600.14    
     0.111     0.619   0.109018E+07
     0.111     0.635    5600.14    
     0.111     0.651    14.5116    
     0.111     0.667   0.252297E-01
     0.111     0.683   0.330947E-04
     0.111     0.698   0.484803E-04
     0.111     0.714   0.369891E-01
     0.111     0.730    21.2750    
     0.111     0.746    8209.98    
     0.111     0.762   0.159816E+07
     0.111     0.778    8209.98    
     0.111     0.794    21.2750    
     0.111     0.810   0.369891E-01
     0.111     0.825   0.484456E-04
     0.111     0.841   0.521066E-07
     0.111     0.857   0.177266E-05
     0.111     0.873   0.193821E-02
     0.111     0.889    1.39734    
     0.111     0.905    498.253    
     0.111     0.921    50.3959    
     0.111     0.937    37816.4    
     0.111     0.952   0.220833E+08
     0.111     0.968   0.869924E+10
     0.111     0.984   0.173997E+13
     0.111     1.000    0.00000    
     0.127     0.000    0.00000    
     0.127     0.016   0.138091E+07
     0.127     0.032    3915.10    
     0.127     0.048    5.49030    
     0.127     0.063   0.507705E-02
     0.127     0.079   0.348248E-05
     0.127     0.095   0.188977E-08
     0.127     0.111   0.269628E-10
     0.127     0.127   0.248175E-07
     0.127     0.143   0.188951E-04
     0.127     0.159   0.108201E-01
     0.127     0.175    4.14899    
     0.127     0.190    800.567    
     0.127     0.206    4.14899    
     0.127     0.222   0.108201E-01
     0.127     0.238   0.188951E-04
     0.127     0.254   0.248497E-07
     0.127     0.270   0.306374E-07
     0.127     0.286   0.233062E-04
     0.127     0.302   0.133461E-01
     0.127     0.317    5.11749    
     0.127     0.333    987.421    
     0.127     0.349    5.11749    
     0.127     0.365   0.133461E-01
     0.127     0.381   0.233062E-04
     0.127     0.397   0.306359E-07
     0.127     0.413   0.234068E-07
     0.127     0.429   0.177966E-04
     0.127     0.444   0.101911E-01
     0.127     0.460    3.90781    
     0.127     0.476    754.035    
     0.127     0.492    3.90781    
     0.127     0.508   0.101911E-01
     0.127     0.524   0.177966E-04
     0.127     0.540   0.234007E-07
     0.127     0.556   0.248250E-07
     0.127     0.571   0.188822E-04
     0.127     0.587   0.108128E-01
     0.127     0.603    4.14618    
     0.127     0.619    800.030    
     0.127     0.635    4.14618    
     0.127     0.651   0.108128E-01
     0.127     0.667   0.188822E-04
     0.127     0.683   0.248387E-07
     0.127     0.698   0.363863E-07
     0.127     0.714   0.276832E-04
     0.127     0.730   0.158525E-01
     0.127     0.746    6.07859    
     0.127     0.762    1172.87    
     0.127     0.778    6.07859    
     0.127     0.794   0.158525E-01
     0.127     0.810   0.276832E-04
     0.127     0.825   0.363602E-07
     0.127     0.841   0.387262E-10
     0.127     0.857   0.687119E-09
     0.127     0.873   0.759718E-06
     0.127     0.889   0.553812E-03
     0.127     0.905   0.199667    
     0.127     0.921   0.516682E-01
     0.127     0.937    39.1989    
     0.127     0.952    22689.8    
     0.127     0.968   0.883333E+07
     0.127     0.984   0.173985E+10
     0.127     1.000    0.00000    
     0.143     0.000    0.00000    
     0.143     0.016    652.518    
     0.143     0.032    1.83010    
     0.143     0.048   0.253853E-02
     0.143     0.063   0.232166E-05
     0.143     0.079   0.157480E-08
     0.143     0.095   0.844993E-12
     0.143     0.111   0.175620E-13
     0.143     0.127   0.163236E-10
     0.143     0.143   0.124087E-07
     0.143     0.159   0.708567E-05
     0.143     0.175   0.270505E-02
     0.143     0.190   0.518631    
     0.143     0.206   0.270505E-02
     0.143     0.222   0.708567E-05
     0.143     0.238   0.124087E-07
     0.143     0.254   0.163448E-10
     0.143     0.270   0.201518E-10
     0.143     0.286   0.153057E-07
     0.143     0.302   0.873986E-05
     0.143     0.317   0.333653E-02
     0.143     0.333   0.639695    
     0.143     0.349   0.333653E-02
     0.143     0.365   0.873986E-05
     0.143     0.381   0.153057E-07
     0.143     0.397   0.201508E-10
     0.143     0.413   0.153958E-10
     0.143     0.429   0.116873E-07
     0.143     0.444   0.667373E-05
     0.143     0.460   0.254779E-02
     0.143     0.476   0.488482    
     0.143     0.492   0.254779E-02
     0.143     0.508   0.667373E-05
     0.143     0.524   0.116873E-07
     0.143     0.540   0.153918E-10
     0.143     0.556   0.163286E-10
     0.143     0.571   0.124002E-07
     0.143     0.587   0.708083E-05
     0.143     0.603   0.270320E-02
     0.143     0.619   0.518279    
     0.143     0.635   0.270320E-02
     0.143     0.651   0.708083E-05
     0.143     0.667   0.124002E-07
     0.143     0.683   0.163376E-10
     0.143     0.698   0.239331E-10
     0.143     0.714   0.181801E-07
     0.143     0.730   0.103812E-04
     0.143     0.746   0.396315E-02
     0.143     0.762   0.759834    
     0.143     0.778   0.396315E-02
     0.143     0.794   0.103812E-04
     0.143     0.810   0.181801E-07
     0.143     0.825   0.239159E-10
     0.143     0.841   0.253356E-13
     0.143     0.857   0.230443E-12
     0.143     0.873   0.257679E-09
     0.143     0.889   0.189962E-06
     0.143     0.905   0.692677E-04
     0.143     0.921   0.448207E-04
     0.143     0.937   0.340763E-01
     0.143     0.952    19.5995    
     0.143     0.968    7563.29    
     0.143     0.984   0.147223E+07
     0.143     1.000    0.00000    
     0.159     0.000    0.00000    
     0.159     0.016   0.261458    
     0.159     0.032   0.725467E-03
     0.159     0.048   0.996050E-06
     0.159     0.063   0.904147E-09
     0.159     0.079   0.616444E-12
     0.159     0.095   0.351319E-15
     0.159     0.111   0.102546E-16
     0.159     0.127   0.954911E-14
     0.159     0.143   0.725496E-11
     0.159     0.159   0.413626E-08
     0.159     0.175   0.157460E-05
     0.159     0.190   0.300565E-03
     0.159     0.206   0.157460E-05
     0.159     0.222   0.413626E-08
     0.159     0.238   0.725496E-11
     0.159     0.254   0.956151E-14
     0.159     0.270   0.117885E-13
     0.159     0.286   0.894871E-11
     0.159     0.302   0.510190E-08
     0.159     0.317   0.194220E-05
     0.159     0.333   0.370731E-03
     0.159     0.349   0.194220E-05
     0.159     0.365   0.510190E-08
     0.159     0.381   0.894871E-11
     0.159     0.397   0.117879E-13
     0.159     0.413   0.900634E-14
     0.159     0.429   0.683317E-11
     0.159     0.444   0.389578E-08
     0.159     0.460   0.148306E-05
     0.159     0.476   0.283092E-03
     0.159     0.492   0.148306E-05
     0.159     0.508   0.389578E-08
     0.159     0.524   0.683317E-11
     0.159     0.540   0.900398E-14
     0.159     0.556   0.955203E-14
     0.159     0.571   0.724998E-11
     0.159     0.587   0.413342E-08
     0.159     0.603   0.157352E-05
     0.159     0.619   0.300360E-03
     0.159     0.635   0.157352E-05
     0.159     0.651   0.413342E-08
     0.159     0.667   0.724998E-11
     0.159     0.683   0.955729E-14
     0.159     0.698   0.140005E-13
     0.159     0.714   0.106293E-10
     0.159     0.730   0.606005E-08
     0.159     0.746   0.230695E-05
     0.159     0.762   0.440355E-03
     0.159     0.778   0.230695E-05
     0.159     0.794   0.606005E-08
     0.159     0.810   0.106293E-10
     0.159     0.825   0.139905E-13
     0.159     0.841   0.147720E-16
     0.159     0.857   0.679260E-16
     0.159     0.873   0.768236E-13
     0.159     0.889   0.572862E-10
     0.159     0.905   0.211377E-07
     0.159     0.921   0.335543E-07
     0.159     0.937   0.255033E-04
     0.159     0.952   0.146041E-01
     0.159     0.968    5.59986    
     0.159     0.984    1080.47    
     0.159     1.000    0.00000    
     0.175     0.000    0.00000    
     0.175     0.016   0.106174E-03
     0.175     0.032   0.437891E-06
     0.175     0.048   0.148771E-08
     0.175     0.063   0.495358E-11
     0.175     0.079   0.142742E-13
     0.175     0.095   0.340840E-16
     0.175     0.111   0.735219E-19
     0.175     0.127   0.502620E-17
     0.175     0.143   0.381965E-14
     0.175     0.159   0.217649E-11
     0.175     0.175   0.827255E-09
     0.175     0.190   0.157462E-06
     0.175     0.206   0.827255E-09
     0.175     0.222   0.217649E-11
     0.175     0.238   0.381965E-14
     0.175     0.254   0.503260E-17
     0.175     0.270   0.620477E-17
     0.175     0.286   0.471139E-14
     0.175     0.302   0.268462E-11
     0.175     0.317   0.102038E-08
     0.175     0.333   0.194223E-06
     0.175     0.349   0.102038E-08
     0.175     0.365   0.268462E-11
     0.175     0.381   0.471139E-14
     0.175     0.397   0.620446E-17
     0.175     0.413   0.474039E-17
     0.175     0.429   0.359758E-14
     0.175     0.444   0.204995E-11
     0.175     0.460   0.779160E-09
     0.175     0.476   0.148308E-06
     0.175     0.492   0.779160E-09
     0.175     0.508   0.204995E-11
     0.175     0.524   0.359758E-14
     0.175     0.540   0.473915E-17
     0.175     0.556   0.502761E-17
     0.175     0.571   0.381703E-14
     0.175     0.587   0.217500E-11
     0.175     0.603   0.826688E-09
     0.175     0.619   0.157354E-06
     0.175     0.635   0.826688E-09
     0.175     0.651   0.217500E-11
     0.175     0.667   0.381703E-14
     0.175     0.683   0.503038E-17
     0.175     0.698   0.736904E-17
     0.175     0.714   0.559620E-14
     0.175     0.730   0.318880E-11
     0.175     0.746   0.121202E-08
     0.175     0.762   0.230698E-06
     0.175     0.778   0.121202E-08
     0.175     0.794   0.318880E-11
     0.175     0.810   0.559620E-14
     0.175     0.825   0.736376E-17
     0.175     0.841   0.775576E-20
     0.175     0.857   0.178180E-19
     0.175     0.873   0.203847E-16
     0.175     0.889   0.153804E-13
     0.175     0.905   0.574875E-11
     0.175     0.921   0.220481E-10
     0.175     0.937   0.167485E-07
     0.175     0.952   0.956375E-05
     0.175     0.968   0.365104E-02
     0.175     0.984   0.699985    
     0.175     1.000    0.00000    
     0.190     0.000    0.00000    
     0.190     0.016   0.167858E-04
     0.190     0.032   0.204410E-06
     0.190     0.048   0.124275E-08
     0.190     0.063   0.502557E-11
     0.190     0.079   0.152046E-13
     0.190     0.095   0.367086E-16
     0.190     0.111   0.736708E-19
     0.190     0.127   0.252902E-20
     0.190     0.143   0.182767E-17
     0.190     0.159   0.104172E-14
     0.190     0.175   0.395728E-12
     0.190     0.190   0.752060E-10
     0.190     0.206   0.395728E-12
     0.190     0.222   0.104172E-14
     0.190     0.238   0.182767E-17
     0.190     0.254   0.240573E-20
     0.190     0.270   0.296607E-20
     0.190     0.286   0.225436E-17
     0.190     0.302   0.128493E-14
     0.190     0.317   0.488115E-12
     0.190     0.333   0.927635E-10
     0.190     0.349   0.488115E-12
     0.190     0.365   0.128493E-14
     0.190     0.381   0.225436E-17
     0.190     0.397   0.296592E-20
     0.190     0.413   0.226605E-20
     0.190     0.429   0.172141E-17
     0.190     0.444   0.981160E-15
     0.190     0.460   0.372721E-12
     0.190     0.476   0.708337E-10
     0.190     0.492   0.372721E-12
     0.190     0.508   0.981160E-15
     0.190     0.524   0.172141E-17
     0.190     0.540   0.226546E-20
     0.190     0.556   0.240335E-20
     0.190     0.571   0.182641E-17
     0.190     0.587   0.104101E-14
     0.190     0.603   0.395456E-12
     0.190     0.619   0.751544E-10
     0.190     0.635   0.395456E-12
     0.190     0.651   0.104101E-14
     0.190     0.667   0.182641E-17
     0.190     0.683   0.240467E-20
     0.190     0.698   0.352263E-20
     0.190     0.714   0.267773E-17
     0.190     0.730   0.152624E-14
     0.190     0.746   0.579784E-12
     0.190     0.762   0.110185E-09
     0.190     0.778   0.579784E-12
     0.190     0.794   0.152624E-14
     0.190     0.810   0.267773E-17
     0.190     0.825   0.352010E-20
     0.190     0.841   0.369901E-23
     0.190     0.857   0.420252E-23
     0.190     0.873   0.486380E-20
     0.190     0.889   0.371542E-17
     0.190     0.905   0.140994E-14
     0.190     0.921   0.128926E-13
     0.190     0.937   0.979232E-11
     0.190     0.952   0.558286E-08
     0.190     0.968   0.212528E-05
     0.190     0.984   0.405673E-03