Title="Temperature Data"
Variables="X","Y","T"
 
Zone I=   128, J=   128, F=POINT
     0.000     0.000    0.00000    
     0.000     0.008    0.00000    
     0.000     0.016    0.00000    
     0.000     0.024    0.00000    
     0.000     0.031    0.00000    
     0.000     0.039    0.00000    
     0.000     0.047    0.00000    
     0.000     0.055    0.00000    
     0.000     0.063    0.00000    
     0.000     0.071    0.00000    
     0.000     0.079    0.00000    
     0.000     0.087    0.00000    
     0.000     0.094    0.00000    
     0.000     0.102    0.00000    
     0.000     0.110    0.00000    
     0.000     0.118    0.00000    
     0.000     0.126    0.00000    
     0.000     0.134    0.00000    
     0.000     0.142    0.00000    
     0.000     0.150    0.00000    
     0.000     0.157    0.00000    
     0.000     0.165    0.00000    
     0.000     0.173    0.00000    
     0.000     0.181    0.00000    
     0.000     0.189    0.00000    
     0.000     0.197    0.00000    
     0.000     0.205    0.00000    
     0.000     0.213    0.00000    
     0.000     0.220    0.00000    
     0.000     0.228    0.00000    
     0.000     0.236    0.00000    
     0.000     0.244    0.00000    
     0.000     0.252    0.00000    
     0.000     0.260    0.00000    
     0.000     0.268    0.00000    
     0.000     0.276    0.00000    
     0.000     0.283    0.00000    
     0.000     0.291    0.00000    
     0.000     0.299    0.00000    
     0.000     0.307    0.00000    
     0.000     0.315    0.00000    
     0.000     0.323    0.00000    
     0.000     0.331    0.00000    
     0.000     0.339    0.00000    
     0.000     0.346    0.00000    
     0.000     0.354    0.00000    
     0.000     0.362    0.00000    
     0.000     0.370    0.00000    
     0.000     0.378    0.00000    
     0.000     0.386    0.00000    
     0.000     0.394    0.00000    
     0.000     0.402    0.00000    
     0.000     0.409    0.00000    
     0.000     0.417    0.00000    
     0.000     0.425    0.00000    
     0.000     0.433    0.00000    
     0.000     0.441    0.00000    
     0.000     0.449    0.00000    
     0.000     0.457    0.00000    
     0.000     0.465    0.00000    
     0.000     0.472    0.00000    
     0.000     0.480    0.00000    
     0.000     0.488    0.00000    
     0.000     0.496    0.00000    
     0.000     0.504    0.00000    
     0.000     0.512    0.00000    
     0.000     0.520    0.00000    
     0.000     0.528    0.00000    
     0.000     0.535    0.00000    
     0.000     0.543    0.00000    
     0.000     0.551    0.00000    
     0.000     0.559    0.00000    
     0.000     0.567    0.00000    
     0.000     0.575    0.00000    
     0.000     0.583    0.00000    
     0.000     0.591    0.00000    
     0.000     0.598    0.00000    
     0.000     0.606    0.00000    
     0.000     0.614    0.00000    
     0.000     0.622    0.00000    
     0.000     0.630    0.00000    
     0.000     0.638    0.00000    
     0.000     0.646    0.00000    
     0.000     0.654    0.00000    
     0.000     0.661    0.00000    
     0.000     0.669    0.00000    
     0.000     0.677    0.00000    
     0.000     0.685    0.00000    
     0.000     0.693    0.00000    
     0.000     0.701    0.00000    
     0.000     0.709    0.00000    
     0.000     0.717    0.00000    
     0.000     0.724    0.00000    
     0.000     0.732    0.00000    
     0.000     0.740    0.00000    
     0.000     0.748    0.00000    
     0.000     0.756    0.00000    
     0.000     0.764    0.00000    
     0.000     0.772    0.00000    
     0.000     0.780    0.00000    
     0.000     0.787    0.00000    
     0.000     0.795    0.00000    
     0.000     0.803    0.00000    
     0.000     0.811    0.00000    
     0.000     0.819    0.00000    
     0.000     0.827    0.00000    
     0.000     0.835    0.00000    
     0.000     0.843    0.00000    
     0.000     0.850    0.00000    
     0.000     0.858    0.00000    
     0.000     0.866    0.00000    
     0.000     0.874    0.00000    
     0.000     0.882    0.00000    
     0.000     0.890    0.00000    
     0.000     0.898    0.00000    
     0.000     0.906    0.00000    
     0.000     0.913    0.00000    
     0.000     0.921    0.00000    
     0.000     0.929    0.00000    
     0.000     0.937    0.00000    
     0.000     0.945    0.00000    
     0.000     0.953    0.00000    
     0.000     0.961    0.00000    
     0.000     0.969    0.00000    
     0.000     0.976    0.00000    
     0.000     0.984    0.00000    
     0.000     0.992    0.00000    
     0.000     1.000    0.00000    
     0.008     0.000   0.247344E-01
     0.008     0.008   0.240976E-01
     0.008     0.016   0.234757E-01
     0.008     0.024   0.228681E-01
     0.008     0.031   0.222747E-01
     0.008     0.039   0.216950E-01
     0.008     0.047   0.211289E-01
     0.008     0.055   0.205759E-01
     0.008     0.063   0.200358E-01
     0.008     0.071   0.195083E-01
     0.008     0.079   0.189931E-01
     0.008     0.087   0.184899E-01
     0.008     0.094   0.179985E-01
     0.008     0.102   0.175185E-01
     0.008     0.110   0.170499E-01
     0.008     0.118   0.165922E-01
     0.008     0.126   0.161453E-01
     0.008     0.134   0.157088E-01
     0.008     0.142   0.152828E-01
     0.008     0.150   0.148666E-01
     0.008     0.157   0.144605E-01
     0.008     0.165   0.140638E-01
     0.008     0.173   0.136767E-01
     0.008     0.181   0.132986E-01
     0.008     0.189   0.129297E-01
     0.008     0.197   0.125695E-01
     0.008     0.205   0.122181E-01
     0.008     0.213   0.118749E-01
     0.008     0.220   0.115402E-01
     0.008     0.228   0.112133E-01
     0.008     0.236   0.108947E-01
     0.008     0.244   0.105835E-01
     0.008     0.252   0.102801E-01
     0.008     0.260   0.998389E-02
     0.008     0.268   0.969520E-02
     0.008     0.276   0.941335E-02
     0.008     0.283   0.913873E-02
     0.008     0.291   0.887064E-02
     0.008     0.299   0.860948E-02
     0.008     0.307   0.835457E-02
     0.008     0.315   0.810631E-02
     0.008     0.323   0.786402E-02
     0.008     0.331   0.762812E-02
     0.008     0.339   0.739791E-02
     0.008     0.346   0.717386E-02
     0.008     0.354   0.695522E-02
     0.008     0.362   0.674250E-02
     0.008     0.370   0.653496E-02
     0.008     0.378   0.633309E-02
     0.008     0.386   0.613616E-02
     0.008     0.394   0.594468E-02
     0.008     0.402   0.575792E-02
     0.008     0.409   0.557638E-02
     0.008     0.417   0.539934E-02
     0.008     0.425   0.522732E-02
     0.008     0.433   0.505958E-02
     0.008     0.441   0.489665E-02
     0.008     0.449   0.473781E-02
     0.008     0.457   0.458358E-02
     0.008     0.465   0.443324E-02
     0.008     0.472   0.428733E-02
     0.008     0.480   0.414512E-02
     0.008     0.488   0.400714E-02
     0.008     0.496   0.387269E-02
     0.008     0.504   0.374229E-02
     0.008     0.512   0.361524E-02
     0.008     0.520   0.349207E-02
     0.008     0.528   0.337208E-02
     0.008     0.535   0.325580E-02
     0.008     0.543   0.314254E-02
     0.008     0.551   0.303283E-02
     0.008     0.559   0.292598E-02
     0.008     0.567   0.282251E-02
     0.008     0.575   0.272175E-02
     0.008     0.583   0.262422E-02
     0.008     0.591   0.252926E-02
     0.008     0.598   0.243737E-02
     0.008     0.606   0.234791E-02
     0.008     0.614   0.226137E-02
     0.008     0.622   0.217713E-02
     0.008     0.630   0.209566E-02
     0.008     0.638   0.201637E-02
     0.008     0.646   0.193969E-02
     0.008     0.654   0.186507E-02
     0.008     0.661   0.179293E-02
     0.008     0.669   0.172272E-02
     0.008     0.677   0.165486E-02
     0.008     0.685   0.158881E-02
     0.008     0.693   0.152497E-02
     0.008     0.701   0.146283E-02
     0.008     0.709   0.140278E-02
     0.008     0.717   0.134432E-02
     0.008     0.724   0.128781E-02
     0.008     0.732   0.123278E-02
     0.008     0.740   0.117959E-02
     0.008     0.748   0.112778E-02
     0.008     0.756   0.107768E-02
     0.008     0.764   0.102887E-02
     0.008     0.772   0.981639E-03
     0.008     0.780   0.935598E-03
     0.008     0.787   0.891029E-03
     0.008     0.795   0.847552E-03
     0.008     0.803   0.805433E-03
     0.008     0.811   0.764316E-03
     0.008     0.819   0.724443E-03
     0.008     0.827   0.685482E-03
     0.008     0.835   0.647655E-03
     0.008     0.843   0.610654E-03
     0.008     0.850   0.574678E-03
     0.008     0.858   0.539443E-03
     0.008     0.866   0.505124E-03
     0.008     0.874   0.471465E-03
     0.008     0.882   0.438616E-03
     0.008     0.890   0.406345E-03
     0.008     0.898   0.374781E-03
     0.008     0.906   0.343713E-03
     0.008     0.913   0.313250E-03
     0.008     0.921   0.283205E-03
     0.008     0.929   0.253661E-03
     0.008     0.937   0.224459E-03
     0.008     0.945   0.195656E-03
     0.008     0.953   0.167118E-03
     0.008     0.961   0.138879E-03
     0.008     0.969   0.110829E-03
     0.008     0.976   0.829779E-04
     0.008     0.984   0.552397E-04
     0.008     0.992   0.276011E-04
     0.008     1.000    0.00000    
     0.016     0.000   0.494537E-01
     0.016     0.008   0.481806E-01
     0.016     0.016   0.469369E-01
     0.016     0.024   0.457222E-01
     0.016     0.031   0.445357E-01
     0.016     0.039   0.433768E-01
     0.016     0.047   0.422448E-01
     0.016     0.055   0.411392E-01
     0.016     0.063   0.400593E-01
     0.016     0.071   0.390047E-01
     0.016     0.079   0.379745E-01
     0.016     0.087   0.369685E-01
     0.016     0.094   0.359859E-01
     0.016     0.102   0.350264E-01
     0.016     0.110   0.340892E-01
     0.016     0.118   0.331743E-01
     0.016     0.126   0.322806E-01
     0.016     0.134   0.314081E-01
     0.016     0.142   0.305560E-01
     0.016     0.150   0.297243E-01
     0.016     0.157   0.289119E-01
     0.016     0.165   0.281191E-01
     0.016     0.173   0.273448E-01
     0.016     0.181   0.265892E-01
     0.016     0.189   0.258513E-01
     0.016     0.197   0.251315E-01
     0.016     0.205   0.244284E-01
     0.016     0.213   0.237427E-01
     0.016     0.220   0.230731E-01
     0.016     0.228   0.224201E-01
     0.016     0.236   0.217824E-01
     0.016     0.244   0.211607E-01
     0.016     0.252   0.205536E-01
     0.016     0.260   0.199619E-01
     0.016     0.268   0.193842E-01
     0.016     0.276   0.188212E-01
     0.016     0.283   0.182716E-01
     0.016     0.291   0.177361E-01
     0.016     0.299   0.172134E-01
     0.016     0.307   0.167043E-01
     0.016     0.315   0.162074E-01
     0.016     0.323   0.157235E-01
     0.016     0.331   0.152513E-01
     0.016     0.339   0.147916E-01
     0.016     0.346   0.143430E-01
     0.016     0.354   0.139065E-01
     0.016     0.362   0.134806E-01
     0.016     0.370   0.130662E-01
     0.016     0.378   0.126620E-01
     0.016     0.386   0.122689E-01
     0.016     0.394   0.118854E-01
     0.016     0.402   0.115126E-01
     0.016     0.409   0.111490E-01
     0.016     0.417   0.107957E-01
     0.016     0.425   0.104511E-01
     0.016     0.433   0.101164E-01
     0.016     0.441   0.978999E-02
     0.016     0.449   0.947304E-02
     0.016     0.457   0.916405E-02
     0.016     0.465   0.886409E-02
     0.016     0.472   0.857172E-02
     0.016     0.480   0.828801E-02
     0.016     0.488   0.801152E-02
     0.016     0.496   0.774332E-02
     0.016     0.504   0.748198E-02
     0.016     0.512   0.722858E-02
     0.016     0.520   0.698170E-02
     0.016     0.528   0.674240E-02
     0.016     0.535   0.650931E-02
     0.016     0.543   0.628346E-02
     0.016     0.551   0.606350E-02
     0.016     0.559   0.585046E-02
     0.016     0.567   0.564299E-02
     0.016     0.575   0.544213E-02
     0.016     0.583   0.524655E-02
     0.016     0.591   0.505726E-02
     0.016     0.598   0.487297E-02
     0.016     0.606   0.469467E-02
     0.016     0.614   0.452109E-02
     0.016     0.622   0.435320E-02
     0.016     0.630   0.418978E-02
     0.016     0.638   0.403176E-02
     0.016     0.646   0.387795E-02
     0.016     0.654   0.372925E-02
     0.016     0.661   0.358452E-02
     0.016     0.669   0.344463E-02
     0.016     0.677   0.330847E-02
     0.016     0.685   0.317687E-02
     0.016     0.693   0.304878E-02
     0.016     0.701   0.292499E-02
     0.016     0.709   0.280448E-02
     0.016     0.717   0.268802E-02
     0.016     0.724   0.257462E-02
     0.016     0.732   0.246501E-02
     0.016     0.740   0.235827E-02
     0.016     0.748   0.225507E-02
     0.016     0.756   0.215453E-02
     0.016     0.764   0.205728E-02
     0.016     0.772   0.196251E-02
     0.016     0.780   0.187079E-02
     0.016     0.787   0.178135E-02
     0.016     0.795   0.169474E-02
     0.016     0.803   0.161022E-02
     0.016     0.811   0.152831E-02
     0.016     0.819   0.144830E-02
     0.016     0.827   0.137068E-02
     0.016     0.835   0.129479E-02
     0.016     0.843   0.122106E-02
     0.016     0.850   0.114889E-02
     0.016     0.858   0.107866E-02
     0.016     0.866   0.100984E-02
     0.016     0.874   0.942738E-03
     0.016     0.882   0.876874E-03
     0.016     0.890   0.812526E-03
     0.016     0.898   0.749253E-03
     0.016     0.906   0.687289E-03
     0.016     0.913   0.626241E-03
     0.016     0.921   0.566297E-03
     0.016     0.929   0.507112E-03
     0.016     0.937   0.448829E-03
     0.016     0.945   0.391150E-03
     0.016     0.953   0.334170E-03
     0.016     0.961   0.277643E-03
     0.016     0.969   0.221614E-03
     0.016     0.976   0.165887E-03
     0.016     0.984   0.110458E-03
     0.016     0.992   0.551791E-04
     0.016     1.000    0.00000    
     0.024     0.000   0.741428E-01
     0.024     0.008   0.722340E-01
     0.024     0.016   0.703695E-01
     0.024     0.024   0.685483E-01
     0.024     0.031   0.667695E-01
     0.024     0.039   0.650320E-01
     0.024     0.047   0.633350E-01
     0.024     0.055   0.616773E-01
     0.024     0.063   0.600584E-01
     0.024     0.071   0.584770E-01
     0.024     0.079   0.569328E-01
     0.024     0.087   0.554243E-01
     0.024     0.094   0.539514E-01
     0.024     0.102   0.525127E-01
     0.024     0.110   0.511080E-01
     0.024     0.118   0.497359E-01
     0.024     0.126   0.483964E-01
     0.024     0.134   0.470880E-01
     0.024     0.142   0.458109E-01
     0.024     0.150   0.445634E-01
     0.024     0.157   0.433460E-01
     0.024     0.165   0.421569E-01
     0.024     0.173   0.409965E-01
     0.024     0.181   0.398632E-01
     0.024     0.189   0.387575E-01
     0.024     0.197   0.376777E-01
     0.024     0.205   0.366243E-01
     0.024     0.213   0.355956E-01
     0.024     0.220   0.345923E-01
     0.024     0.228   0.336126E-01
     0.024     0.236   0.326573E-01
     0.024     0.244   0.317245E-01
     0.024     0.252   0.308151E-01
     0.024     0.260   0.299272E-01
     0.024     0.268   0.290619E-01
     0.024     0.276   0.282170E-01
     0.024     0.283   0.273938E-01
     0.024     0.291   0.265902E-01
     0.024     0.299   0.258074E-01
     0.024     0.307   0.250433E-01
     0.024     0.315   0.242991E-01
     0.024     0.323   0.235728E-01
     0.024     0.331   0.228657E-01
     0.024     0.339   0.221756E-01
     0.024     0.346   0.215040E-01
     0.024     0.354   0.208487E-01
     0.024     0.362   0.202110E-01
     0.024     0.370   0.195889E-01
     0.024     0.378   0.189838E-01
     0.024     0.386   0.183935E-01
     0.024     0.394   0.178195E-01
     0.024     0.402   0.172597E-01
     0.024     0.409   0.167155E-01
     0.024     0.417   0.161848E-01
     0.024     0.425   0.156692E-01
     0.024     0.433   0.151663E-01
     0.024     0.441   0.146780E-01
     0.024     0.449   0.142018E-01
     0.024     0.457   0.137395E-01
     0.024     0.465   0.132889E-01
     0.024     0.472   0.128515E-01
     0.024     0.480   0.124252E-01
     0.024     0.488   0.120116E-01
     0.024     0.496   0.116086E-01
     0.024     0.504   0.112177E-01
     0.024     0.512   0.108369E-01
     0.024     0.520   0.104677E-01
     0.024     0.528   0.101080E-01
     0.024     0.535   0.975944E-02
     0.024     0.543   0.941994E-02
     0.024     0.551   0.909106E-02
     0.024     0.559   0.877077E-02
     0.024     0.567   0.846061E-02
     0.024     0.575   0.815860E-02
     0.024     0.583   0.786624E-02
     0.024     0.591   0.758160E-02
     0.024     0.598   0.730615E-02
     0.024     0.606   0.703800E-02
     0.024     0.614   0.677859E-02
     0.024     0.622   0.652608E-02
     0.024     0.630   0.628186E-02
     0.024     0.638   0.604417E-02
     0.024     0.646   0.581434E-02
     0.024     0.654   0.559065E-02
     0.024     0.661   0.537441E-02
     0.024     0.669   0.516395E-02
     0.024     0.677   0.496052E-02
     0.024     0.685   0.476253E-02
     0.024     0.693   0.457118E-02
     0.024     0.701   0.438492E-02
     0.024     0.709   0.420490E-02
     0.024     0.717   0.402966E-02
     0.024     0.724   0.386027E-02
     0.024     0.732   0.369534E-02
     0.024     0.740   0.353589E-02
     0.024     0.748   0.338059E-02
     0.024     0.756   0.323042E-02
     0.024     0.764   0.308408E-02
     0.024     0.772   0.294252E-02
     0.024     0.780   0.280450E-02
     0.024     0.787   0.267091E-02
     0.024     0.795   0.254058E-02
     0.024     0.803   0.241433E-02
     0.024     0.811   0.229108E-02
     0.024     0.819   0.217155E-02
     0.024     0.827   0.205477E-02
     0.024     0.835   0.194138E-02
     0.024     0.843   0.183047E-02
     0.024     0.850   0.172263E-02
     0.024     0.858   0.161701E-02
     0.024     0.866   0.151414E-02
     0.024     0.874   0.141324E-02
     0.024     0.882   0.131478E-02
     0.024     0.890   0.121804E-02
     0.024     0.898   0.112342E-02
     0.024     0.906   0.103030E-02
     0.024     0.913   0.938983E-03
     0.024     0.921   0.848921E-03
     0.024     0.929   0.760363E-03
     0.024     0.937   0.672827E-03
     0.024     0.945   0.586490E-03
     0.024     0.953   0.500945E-03
     0.024     0.961   0.416298E-03
     0.024     0.969   0.332216E-03
     0.024     0.976   0.248731E-03
     0.024     0.984   0.165584E-03
     0.024     0.992   0.827356E-04
     0.024     1.000    0.00000    
     0.031     0.000   0.987864E-01
     0.031     0.008   0.962432E-01
     0.031     0.016   0.937590E-01
     0.031     0.024   0.913326E-01
     0.031     0.031   0.889624E-01
     0.031     0.039   0.866475E-01
     0.031     0.047   0.843862E-01
     0.031     0.055   0.821778E-01
     0.031     0.063   0.800206E-01
     0.031     0.071   0.779139E-01
     0.031     0.079   0.758560E-01
     0.031     0.087   0.738466E-01
     0.031     0.094   0.718837E-01
     0.031     0.102   0.699672E-01
     0.031     0.110   0.680951E-01
     0.031     0.118   0.662674E-01
     0.031     0.126   0.644821E-01
     0.031     0.134   0.627394E-01
     0.031     0.142   0.610372E-01
     0.031     0.150   0.593758E-01
     0.031     0.157   0.577530E-01
     0.031     0.165   0.561694E-01
     0.031     0.173   0.546226E-01
     0.031     0.181   0.531134E-01
     0.031     0.189   0.516394E-01
     0.031     0.197   0.502014E-01
     0.031     0.205   0.487971E-01
     0.031     0.213   0.474273E-01
     0.031     0.220   0.460897E-01
     0.031     0.228   0.447853E-01
     0.031     0.236   0.435115E-01
     0.031     0.244   0.422696E-01
     0.031     0.252   0.410570E-01
     0.031     0.260   0.398750E-01
     0.031     0.268   0.387210E-01
     0.031     0.276   0.375964E-01
     0.031     0.283   0.364985E-01
     0.031     0.291   0.354289E-01
     0.031     0.299   0.343847E-01
     0.031     0.307   0.333677E-01
     0.031     0.315   0.323751E-01
     0.031     0.323   0.314086E-01
     0.031     0.331   0.304652E-01
     0.031     0.339   0.295470E-01
     0.031     0.346   0.286509E-01
     0.031     0.354   0.277790E-01
     0.031     0.362   0.269282E-01
     0.031     0.370   0.261005E-01
     0.031     0.378   0.252930E-01
     0.031     0.386   0.245077E-01
     0.031     0.394   0.237417E-01
     0.031     0.402   0.229971E-01
     0.031     0.409   0.222708E-01
     0.031     0.417   0.215650E-01
     0.031     0.425   0.208767E-01
     0.031     0.433   0.202080E-01
     0.031     0.441   0.195560E-01
     0.031     0.449   0.189229E-01
     0.031     0.457   0.183057E-01
     0.031     0.465   0.177065E-01
     0.031     0.472   0.171225E-01
     0.031     0.480   0.165557E-01
     0.031     0.488   0.160034E-01
     0.031     0.496   0.154677E-01
     0.031     0.504   0.149456E-01
     0.031     0.512   0.144395E-01
     0.031     0.520   0.139463E-01
     0.031     0.528   0.134683E-01
     0.031     0.535   0.130027E-01
     0.031     0.543   0.125516E-01
     0.031     0.551   0.121122E-01
     0.031     0.559   0.116866E-01
     0.031     0.567   0.112722E-01
     0.031     0.575   0.108709E-01
     0.031     0.583   0.104803E-01
     0.031     0.591   0.101021E-01
     0.031     0.598   0.973402E-02
     0.031     0.606   0.937784E-02
     0.031     0.614   0.903112E-02
     0.031     0.622   0.869575E-02
     0.031     0.630   0.836932E-02
     0.031     0.638   0.805365E-02
     0.031     0.646   0.774641E-02
     0.031     0.654   0.744937E-02
     0.031     0.661   0.716027E-02
     0.031     0.669   0.688082E-02
     0.031     0.677   0.660884E-02
     0.031     0.685   0.634597E-02
     0.031     0.693   0.609010E-02
     0.031     0.701   0.584282E-02
     0.031     0.709   0.560211E-02
     0.031     0.717   0.536946E-02
     0.031     0.724   0.514295E-02
     0.031     0.732   0.492400E-02
     0.031     0.740   0.471077E-02
     0.031     0.748   0.450462E-02
     0.031     0.756   0.430378E-02
     0.031     0.764   0.410953E-02
     0.031     0.772   0.392021E-02
     0.031     0.780   0.373700E-02
     0.031     0.787   0.355834E-02
     0.031     0.795   0.338534E-02
     0.031     0.803   0.321651E-02
     0.031     0.811   0.305287E-02
     0.031     0.819   0.289306E-02
     0.031     0.827   0.273800E-02
     0.031     0.835   0.258641E-02
     0.031     0.843   0.243912E-02
     0.031     0.850   0.229497E-02
     0.031     0.858   0.215469E-02
     0.031     0.866   0.201720E-02
     0.031     0.874   0.188317E-02
     0.031     0.882   0.175160E-02
     0.031     0.890   0.162306E-02
     0.031     0.898   0.149667E-02
     0.031     0.906   0.137290E-02
     0.031     0.913   0.125095E-02
     0.031     0.921   0.113121E-02
     0.031     0.929   0.101298E-02
     0.031     0.937   0.896559E-03
     0.031     0.945   0.781343E-03
     0.031     0.953   0.667523E-03
     0.031     0.961   0.554607E-03
     0.031     0.969   0.442687E-03
     0.031     0.976   0.331368E-03
     0.031     0.984   0.220645E-03
     0.031     0.992   0.110223E-03
     0.031     1.000    0.00000    
     0.039     0.000   0.123370    
     0.039     0.008   0.120194    
     0.039     0.016   0.117091    
     0.039     0.024   0.114061    
     0.039     0.031   0.111101    
     0.039     0.039   0.108210    
     0.039     0.047   0.105386    
     0.039     0.055   0.102628    
     0.039     0.063   0.999340E-01
     0.039     0.071   0.973027E-01
     0.039     0.079   0.947332E-01
     0.039     0.087   0.922232E-01
     0.039     0.094   0.897724E-01
     0.039     0.102   0.873783E-01
     0.039     0.110   0.850410E-01
     0.039     0.118   0.827579E-01
     0.039     0.126   0.805290E-01
     0.039     0.134   0.783519E-01
     0.039     0.142   0.762269E-01
     0.039     0.150   0.741512E-01
     0.039     0.157   0.721254E-01
     0.039     0.165   0.701468E-01
     0.039     0.173   0.682160E-01
     0.039     0.181   0.663303E-01
     0.039     0.189   0.644905E-01
     0.039     0.197   0.626937E-01
     0.039     0.205   0.609409E-01
     0.039     0.213   0.592292E-01
     0.039     0.220   0.575598E-01
     0.039     0.228   0.559296E-01
     0.039     0.236   0.543400E-01
     0.039     0.244   0.527879E-01
     0.039     0.252   0.512747E-01
     0.039     0.260   0.497973E-01
     0.039     0.268   0.483574E-01
     0.039     0.276   0.469517E-01
     0.039     0.283   0.455819E-01
     0.039     0.291   0.442447E-01
     0.039     0.299   0.429421E-01
     0.039     0.307   0.416707E-01
     0.039     0.315   0.404324E-01
     0.039     0.323   0.392239E-01
     0.039     0.331   0.380473E-01
     0.039     0.339   0.368991E-01
     0.039     0.346   0.357815E-01
     0.039     0.354   0.346911E-01
     0.039     0.362   0.336301E-01
     0.039     0.370   0.325949E-01
     0.039     0.378   0.315880E-01
     0.039     0.386   0.306058E-01
     0.039     0.394   0.296507E-01
     0.039     0.402   0.287192E-01
     0.039     0.409   0.278137E-01
     0.039     0.417   0.269307E-01
     0.039     0.425   0.260727E-01
     0.039     0.433   0.252360E-01
     0.039     0.441   0.244234E-01
     0.039     0.449   0.236311E-01
     0.039     0.457   0.228619E-01
     0.039     0.465   0.221120E-01
     0.039     0.472   0.213842E-01
     0.039     0.480   0.206749E-01
     0.039     0.488   0.199867E-01
     0.039     0.496   0.193161E-01
     0.039     0.504   0.186657E-01
     0.039     0.512   0.180320E-01
     0.039     0.520   0.174176E-01
     0.039     0.528   0.168192E-01
     0.039     0.535   0.162392E-01
     0.039     0.543   0.156743E-01
     0.039     0.551   0.151270E-01
     0.039     0.559   0.145941E-01
     0.039     0.567   0.140780E-01
     0.039     0.575   0.135755E-01
     0.039     0.583   0.130890E-01
     0.039     0.591   0.126154E-01
     0.039     0.598   0.121570E-01
     0.039     0.606   0.117109E-01
     0.039     0.614   0.112792E-01
     0.039     0.622   0.108590E-01
     0.039     0.630   0.104527E-01
     0.039     0.638   0.100572E-01
     0.039     0.646   0.967475E-02
     0.039     0.654   0.930254E-02
     0.039     0.661   0.894273E-02
     0.039     0.669   0.859253E-02
     0.039     0.677   0.825405E-02
     0.039     0.685   0.792460E-02
     0.039     0.693   0.760620E-02
     0.039     0.701   0.729627E-02
     0.039     0.709   0.699674E-02
     0.039     0.717   0.670513E-02
     0.039     0.724   0.642329E-02
     0.039     0.732   0.614885E-02
     0.039     0.740   0.588354E-02
     0.039     0.748   0.562513E-02
     0.039     0.756   0.537524E-02
     0.039     0.764   0.513175E-02
     0.039     0.772   0.489619E-02
     0.039     0.780   0.466655E-02
     0.039     0.787   0.444425E-02
     0.039     0.795   0.422740E-02
     0.039     0.803   0.401732E-02
     0.039     0.811   0.381223E-02
     0.039     0.819   0.361335E-02
     0.039     0.827   0.341903E-02
     0.039     0.835   0.323036E-02
     0.039     0.843   0.304580E-02
     0.039     0.850   0.286636E-02
     0.039     0.858   0.269062E-02
     0.039     0.866   0.251944E-02
     0.039     0.874   0.235156E-02
     0.039     0.882   0.218772E-02
     0.039     0.890   0.202676E-02
     0.039     0.898   0.186932E-02
     0.039     0.906   0.171436E-02
     0.039     0.913   0.156242E-02
     0.039     0.921   0.141256E-02
     0.039     0.929   0.126520E-02
     0.039     0.937   0.111955E-02
     0.039     0.945   0.975888E-03
     0.039     0.953   0.833546E-03
     0.039     0.961   0.692698E-03
     0.039     0.969   0.552789E-03
     0.039     0.976   0.413875E-03
     0.039     0.984   0.275523E-03
     0.039     0.992   0.137668E-03
     0.039     1.000    0.00000    
     0.047     0.000   0.147877    
     0.047     0.008   0.144070    
     0.047     0.016   0.140352    
     0.047     0.024   0.136719    
     0.047     0.031   0.133171    
     0.047     0.039   0.129706    
     0.047     0.047   0.126321    
     0.047     0.055   0.123015    
     0.047     0.063   0.119786    
     0.047     0.071   0.116632    
     0.047     0.079   0.113552    
     0.047     0.087   0.110544    
     0.047     0.094   0.107606    
     0.047     0.102   0.104737    
     0.047     0.110   0.101934    
     0.047     0.118   0.991983E-01
     0.047     0.126   0.965259E-01
     0.047     0.134   0.939172E-01
     0.047     0.142   0.913691E-01
     0.047     0.150   0.888820E-01
     0.047     0.157   0.864528E-01
     0.047     0.165   0.840822E-01
     0.047     0.173   0.817668E-01
     0.047     0.181   0.795076E-01
     0.047     0.189   0.773011E-01
     0.047     0.197   0.751486E-01
     0.047     0.205   0.730463E-01
     0.047     0.213   0.709959E-01
     0.047     0.220   0.689935E-01
     0.047     0.228   0.670409E-01
     0.047     0.236   0.651341E-01
     0.047     0.244   0.632751E-01
     0.047     0.252   0.614598E-01
     0.047     0.260   0.596905E-01
     0.047     0.268   0.579630E-01
     0.047     0.276   0.562795E-01
     0.047     0.283   0.546360E-01
     0.047     0.291   0.530349E-01
     0.047     0.299   0.514719E-01
     0.047     0.307   0.499495E-01
     0.047     0.315   0.484636E-01
     0.047     0.323   0.470167E-01
     0.047     0.331   0.456046E-01
     0.047     0.339   0.442301E-01
     0.047     0.346   0.428887E-01
     0.047     0.354   0.415835E-01
     0.047     0.362   0.403098E-01
     0.047     0.370   0.390709E-01
     0.047     0.378   0.378621E-01
     0.047     0.386   0.366866E-01
     0.047     0.394   0.355400E-01
     0.047     0.402   0.344253E-01
     0.047     0.409   0.333380E-01
     0.047     0.417   0.322815E-01
     0.047     0.425   0.312511E-01
     0.047     0.433   0.302502E-01
     0.047     0.441   0.292742E-01
     0.047     0.449   0.283264E-01
     0.047     0.457   0.274025E-01
     0.047     0.465   0.265056E-01
     0.047     0.472   0.256313E-01
     0.047     0.480   0.247830E-01
     0.047     0.488   0.239562E-01