Title="Temperature Data"
Variables="X","Y","T"
 
Zone I=   128, J=   128, F=POINT
     0.000     0.000   0.689945-309
     0.000     0.008   0.689945-309
     0.000     0.016    0.00000    
     0.000     0.024    0.00000    
     0.000     0.031   0.601347-153
     0.000     0.039   0.603687-153
     0.000     0.047   0.337734E-56
     0.000     0.055   0.740789E-37
     0.000     0.063   0.164127-258
     0.000     0.071   0.130371E-75
     0.000     0.079   0.696312E-76
     0.000     0.087   0.125766E-75
     0.000     0.094   0.195846E+26
     0.000     0.102   0.601347-153
     0.000     0.110   0.603687-153
     0.000     0.118   0.200358E-75
     0.000     0.126   0.200426E-75
     0.000     0.134   0.164127-258
     0.000     0.142   0.130371E-75
     0.000     0.150   0.696312E-76
     0.000     0.157   0.125766E-75
     0.000     0.165   0.304602E+26
     0.000     0.173   0.601347-153
     0.000     0.181   0.603687-153
     0.000     0.189   0.165583E-46
     0.000     0.197   0.125691E-70
     0.000     0.205   0.164127-258
     0.000     0.213   0.130371E-75
     0.000     0.220   0.696312E-76
     0.000     0.228   0.125766E-75
     0.000     0.236   0.304508E+26
     0.000     0.244   0.601347-153
     0.000     0.252   0.603687-153
     0.000     0.260   0.601033E-66
     0.000     0.268   0.408446E-32
     0.000     0.276   0.164127-258
     0.000     0.283   0.130371E-75
     0.000     0.291   0.696312E-76
     0.000     0.299   0.125766E-75
     0.000     0.307   0.280566E+26
     0.000     0.315   0.601347-153
     0.000     0.323   0.603687-153
     0.000     0.331   0.771446E-42
     0.000     0.339   0.125691E-70
     0.000     0.346   0.164127-258
     0.000     0.354   0.130371E-75
     0.000     0.362   0.696312E-76
     0.000     0.370   0.125766E-75
     0.000     0.378   0.220260E+26
     0.000     0.386   0.601347-153
     0.000     0.394   0.603687-153
     0.000     0.402   0.466819E-61
     0.000     0.409   0.385651E-56
     0.000     0.417   0.164127-258
     0.000     0.425   0.130371E-75
     0.000     0.433   0.696312E-76
     0.000     0.441   0.125766E-75
     0.000     0.449   0.195941E+26
     0.000     0.457   0.601347-153
     0.000     0.465   0.603687-153
     0.000     0.472   0.389112E-32
     0.000     0.480   0.103074E-70
     0.000     0.488   0.164127-258
     0.000     0.496   0.130371E-75
     0.000     0.504   0.696312E-76
     0.000     0.512   0.125766E-75
     0.000     0.520   0.244487E+26
     0.000     0.528   0.601347-153
     0.000     0.535   0.603687-153
     0.000     0.543   0.231819E-51
     0.000     0.551   0.174551E-75
     0.000     0.559   0.164127-258
     0.000     0.567   0.130371E-75
     0.000     0.575   0.696312E-76
     0.000     0.583   0.125766E-75
     0.000     0.591   0.268382E+26
     0.000     0.598   0.601347-153
     0.000     0.606   0.603687-153
     0.000     0.614   0.209028E-75
     0.000     0.622   0.103074E-70
     0.000     0.630   0.164127-258
     0.000     0.638   0.130371E-75
     0.000     0.646   0.696312E-76
     0.000     0.654   0.125766E-75
     0.000     0.661   0.256434E+26
     0.000     0.669   0.601347-153
     0.000     0.677   0.603687-153
     0.000     0.685   0.172452E-46
     0.000     0.693   0.588457E-61
     0.000     0.701   0.164127-258
     0.000     0.709   0.130371E-75
     0.000     0.717   0.696312E-76
     0.000     0.724   0.125766E-75
     0.000     0.732   0.196129E+26
     0.000     0.740   0.601347-153
     0.000     0.748   0.603687-153
     0.000     0.756   0.638270E-66
     0.000     0.764   0.623239E-37
     0.000     0.772   0.164127-258
     0.000     0.780   0.130371E-75
     0.000     0.787   0.696312E-76
     0.000     0.795   0.125766E-75
     0.000     0.803   0.280329E+26
     0.000     0.811   0.601347-153
     0.000     0.819   0.603687-153
     0.000     0.827   0.535077E-37
     0.000     0.835   0.389187E-32
     0.000     0.843   0.164127-258
     0.000     0.850   0.130371E-75
     0.000     0.858   0.696312E-76
     0.000     0.866   0.125766E-75
     0.000     0.874   0.220073E+26
     0.000     0.882   0.601347-153
     0.000     0.890   0.603687-153
     0.000     0.898   0.491223E-61
     0.000     0.906   0.131425E-46
     0.000     0.913   0.164127-258
     0.000     0.921   0.130371E-75
     0.000     0.929   0.696312E-76
     0.000     0.937   0.125766E-75
     0.000     0.945   0.208125E+26
     0.000     0.953   0.601347-153
     0.000     0.961   0.603687-153
     0.000     0.969   0.408446E-32
     0.000     0.976   0.771622E-42
     0.000     0.984   0.164127-258
     0.000     0.992   0.130371E-75
     0.000     1.000   0.696312E-76
     0.008     0.000   0.125766E-75
     0.008     0.008   0.419058E+22
     0.008     0.016   0.902505E+22
     0.008     0.024   0.154234E+23
     0.008     0.031   0.250139E+23
     0.008     0.039   0.409515E+23
     0.008     0.047   0.695875E+23
     0.008     0.055   0.124169E+24
     0.008     0.063   0.234008E+24
     0.008     0.071   0.470211E+24
     0.008     0.079   0.102660E+25
     0.008     0.087   0.250002E+25
     0.008     0.094   0.694377E+25
     0.008     0.102   0.251810E+25
     0.008     0.110   0.106992E+25
     0.008     0.118   0.556954E+24
     0.008     0.126   0.403584E+24
     0.008     0.134   0.462002E+24
     0.008     0.142   0.772006E+24
     0.008     0.150   0.160593E+25
     0.008     0.157   0.387883E+25
     0.008     0.165   0.107774E+26
     0.008     0.173   0.388305E+25
     0.008     0.181   0.161702E+25
     0.008     0.189   0.796665E+24
     0.008     0.197   0.514644E+24
     0.008     0.205   0.515228E+24
     0.008     0.213   0.798419E+24
     0.008     0.220   0.161994E+25
     0.008     0.228   0.388700E+25
     0.008     0.236   0.107816E+26
     0.008     0.244   0.388886E+25
     0.008     0.252   0.162307E+25
     0.008     0.260   0.801309E+24
     0.008     0.268   0.514626E+24
     0.008     0.276   0.503583E+24
     0.008     0.283   0.759328E+24
     0.008     0.291   0.151372E+25
     0.008     0.299   0.360083E+25
     0.008     0.307   0.995154E+25
     0.008     0.315   0.359801E+25
     0.008     0.323   0.150611E+25
     0.008     0.331   0.741947E+24
     0.008     0.339   0.465570E+24
     0.008     0.346   0.432392E+24
     0.008     0.354   0.620574E+24
     0.008     0.362   0.120611E+25
     0.008     0.370   0.284114E+25
     0.008     0.378   0.782542E+25
     0.008     0.386   0.283778E+25
     0.008     0.394   0.119740E+25
     0.008     0.402   0.601471E+24
     0.008     0.409   0.391938E+24
     0.008     0.417   0.380010E+24
     0.008     0.425   0.556697E+24
     0.008     0.433   0.108278E+25
     0.008     0.441   0.254033E+25
     0.008     0.449   0.697624E+25
     0.008     0.457   0.254107E+25
     0.008     0.465   0.108481E+25
     0.008     0.472   0.561411E+24
     0.008     0.480   0.390481E+24
     0.008     0.488   0.414870E+24
     0.008     0.496   0.652358E+24
     0.008     0.504   0.131568E+25
     0.008     0.512   0.313665E+25
     0.008     0.520   0.867189E+25
     0.008     0.528   0.313726E+25
     0.008     0.535   0.131861E+25
     0.008     0.543   0.661986E+24
     0.008     0.551   0.440662E+24
     0.008     0.559   0.452925E+24
     0.008     0.567   0.707455E+24
     0.008     0.575   0.143320E+25
     0.008     0.583   0.343136E+25
     0.008     0.591   0.950725E+25
     0.008     0.598   0.343101E+25
     0.008     0.606   0.143280E+25
     0.008     0.614   0.707720E+24
     0.008     0.622   0.455438E+24
     0.008     0.630   0.448825E+24
     0.008     0.638   0.683578E+24
     0.008     0.646   0.137327E+25
     0.008     0.654   0.328103E+25
     0.008     0.661   0.908605E+25
     0.008     0.669   0.328006E+25
     0.008     0.677   0.136963E+25
     0.008     0.685   0.672941E+24
     0.008     0.693   0.421790E+24
     0.008     0.701   0.391649E+24
     0.008     0.709   0.560477E+24
     0.008     0.717   0.108385E+25
     0.008     0.724   0.254203E+25
     0.008     0.732   0.698286E+25
     0.008     0.740   0.254525E+25
     0.008     0.748   0.109084E+25
     0.008     0.756   0.572647E+24
     0.008     0.764   0.412050E+24
     0.008     0.772   0.457039E+24
     0.008     0.780   0.738293E+24
     0.008     0.787   0.150391E+25
     0.008     0.795   0.359475E+25
     0.008     0.803   0.994284E+25
     0.008     0.811   0.359642E+25
     0.008     0.819   0.150781E+25
     0.008     0.827   0.745858E+24
     0.008     0.835   0.471366E+24
     0.008     0.843   0.439844E+24
     0.008     0.850   0.629314E+24
     0.008     0.858   0.121545E+25
     0.008     0.866   0.284972E+25
     0.008     0.874   0.782987E+25
     0.008     0.882   0.284612E+25
     0.008     0.890   0.120655E+25
     0.008     0.898   0.610863E+24
     0.008     0.906   0.402592E+24
     0.008     0.913   0.395304E+24
     0.008     0.921   0.585081E+24
     0.008     0.929   0.114584E+25
     0.008     0.937   0.269883E+25
     0.008     0.945   0.742274E+25
     0.008     0.953   0.274021E+25
     0.008     0.961   0.125824E+25
     0.008     0.969   0.856340E+24
     0.008     0.976   0.107459E+25
     0.008     0.984   0.226468E+25
     0.008     0.992   0.632502E+25
     0.008     1.000   0.208172E+26
     0.016     0.000   0.601347-153
     0.016     0.008   0.788954E+22
     0.016     0.016   0.169057E+23
     0.016     0.024   0.286120E+23
     0.016     0.031   0.456666E+23
     0.016     0.039   0.729802E+23
     0.016     0.047   0.119813E+24
     0.016     0.055   0.203610E+24
     0.016     0.063   0.357112E+24
     0.016     0.071   0.641116E+24
     0.016     0.079   0.116214E+25
     0.016     0.087   0.205966E+25
     0.016     0.094   0.320449E+25
     0.016     0.102   0.209147E+25
     0.016     0.110   0.123701E+25
     0.016     0.118   0.786591E+24
     0.016     0.126   0.628964E+24
     0.016     0.134   0.709297E+24
     0.016     0.142   0.106193E+25
     0.016     0.150   0.182020E+25
     0.016     0.157   0.318364E+25
     0.016     0.165   0.494147E+25
     0.016     0.173   0.319074E+25
     0.016     0.181   0.183860E+25
     0.016     0.189   0.110186E+25
     0.016     0.197   0.791329E+24
     0.016     0.205   0.792464E+24
     0.016     0.213   0.110531E+25
     0.016     0.220   0.184450E+25
     0.016     0.228   0.319944E+25
     0.016     0.236   0.495396E+25
     0.016     0.244   0.320320E+25
     0.016     0.252   0.185106E+25
     0.016     0.260   0.111237E+25
     0.016     0.268   0.795350E+24
     0.016     0.276   0.781125E+24
     0.016     0.283   0.106196E+25
     0.016     0.291   0.173915E+25
     0.016     0.299   0.298472E+25
     0.016     0.307   0.459801E+25
     0.016     0.315   0.298007E+25
     0.016     0.323   0.172677E+25
     0.016     0.331   0.103432E+25
     0.016     0.339   0.722866E+24
     0.016     0.346   0.676826E+24
     0.016     0.354   0.877590E+24
     0.016     0.362   0.139807E+25
     0.016     0.370   0.236995E+25
     0.016     0.378   0.363403E+25
     0.016     0.386   0.236428E+25
     0.016     0.394   0.138361E+25
     0.016     0.402   0.846691E+24
     0.016     0.409   0.613980E+24
     0.016     0.417   0.598176E+24
     0.016     0.425   0.791424E+24
     0.016     0.433   0.126316E+25
     0.016     0.441   0.213299E+25
     0.016     0.449   0.326084E+25
     0.016     0.457   0.213419E+25
     0.016     0.465   0.126641E+25
     0.016     0.472   0.798832E+24
     0.016     0.480   0.614053E+24
     0.016     0.488   0.646701E+24
     0.016     0.496   0.912141E+24
     0.016     0.504   0.151080E+25
     0.016     0.512   0.259935E+25
     0.016     0.520   0.400685E+25
     0.016     0.528   0.259988E+25
     0.016     0.535   0.151457E+25
     0.016     0.543   0.925782E+24
     0.016     0.551   0.683666E+24
     0.016     0.559   0.700226E+24
     0.016     0.567   0.982884E+24
     0.016     0.575   0.163665E+25
     0.016     0.583   0.283056E+25
     0.016     0.591   0.437525E+25
     0.016     0.598   0.282980E+25
     0.016     0.606   0.163558E+25
     0.016     0.614   0.982615E+24
     0.016     0.622   0.703003E+24
     0.016     0.630   0.693808E+24
     0.016     0.638   0.951387E+24
     0.016     0.646   0.157029E+25
     0.016     0.654   0.270891E+25
     0.016     0.661   0.418442E+25
     0.016     0.669   0.270769E+25
     0.016     0.677   0.156518E+25
     0.016     0.685   0.935813E+24
     0.016     0.693   0.654447E+24
     0.016     0.701   0.614185E+24
     0.016     0.709   0.796023E+24
     0.016     0.717   0.126349E+25
     0.016     0.724   0.213323E+25
     0.016     0.732   0.326357E+25
     0.016     0.740   0.213915E+25
     0.016     0.748   0.127621E+25
     0.016     0.756   0.817657E+24
     0.016     0.764   0.649037E+24
     0.016     0.772   0.710787E+24
     0.016     0.780   0.102926E+25
     0.016     0.787   0.172421E+25
     0.016     0.795   0.297754E+25
     0.016     0.803   0.459403E+25
     0.016     0.811   0.298051E+25
     0.016     0.819   0.173104E+25
     0.016     0.827   0.104212E+25
     0.016     0.835   0.734055E+24
     0.016     0.843   0.691149E+24
     0.016     0.850   0.894493E+24
     0.016     0.858   0.141662E+25
     0.016     0.866   0.238886E+25
     0.016     0.874   0.365203E+25
     0.016     0.882   0.238260E+25
     0.016     0.890   0.140147E+25
     0.016     0.898   0.863992E+24
     0.016     0.906   0.632213E+24
     0.016     0.913   0.621570E+24
     0.016     0.921   0.829007E+24
     0.016     0.929   0.133227E+25
     0.016     0.937   0.226265E+25
     0.016     0.945   0.347748E+25
     0.016     0.953   0.231827E+25
     0.016     0.961   0.147309E+25
     0.016     0.969   0.112526E+25
     0.016     0.976   0.120412E+25
     0.016     0.984   0.167812E+25
     0.016     0.992   0.222805E+25
     0.016     1.000   0.603687-153
     0.024     0.000   0.505231E-37
     0.024     0.008   0.107329E+23
     0.024     0.016   0.228367E+23
     0.024     0.024   0.381323E+23
     0.024     0.031   0.595370E+23
     0.024     0.039   0.921015E+23
     0.024     0.047   0.144614E+24
     0.024     0.055   0.231829E+24
     0.024     0.063   0.376893E+24
     0.024     0.071   0.611740E+24
     0.024     0.079   0.966942E+24
     0.024     0.087   0.142473E+25
     0.024     0.094   0.177972E+25
     0.024     0.102   0.146394E+25
     0.024     0.110   0.105706E+25
     0.024     0.118   0.780243E+24
     0.024     0.126   0.675514E+24
     0.024     0.134   0.749279E+24
     0.024     0.142   0.102006E+25
     0.024     0.150   0.151285E+25
     0.024     0.157   0.218544E+25
     0.024     0.165   0.270910E+25
     0.024     0.173   0.219357E+25
     0.024     0.181   0.153353E+25
     0.024     0.189   0.106365E+25
     0.024     0.197   0.835156E+24
     0.024     0.205   0.836751E+24
     0.024     0.213   0.106850E+25
     0.024     0.220   0.154190E+25
     0.024     0.228   0.220605E+25
     0.024     0.236   0.272702E+25
     0.024     0.244   0.221162E+25
     0.024     0.252   0.155204E+25
     0.024     0.260   0.108084E+25
     0.024     0.268   0.846837E+24
     0.024     0.276   0.835382E+24
     0.024     0.283   0.104217E+25
     0.024     0.291   0.147448E+25
     0.024     0.299   0.208319E+25
     0.024     0.307   0.255909E+25
     0.024     0.315   0.207807E+25
     0.024     0.323   0.146108E+25
     0.024     0.331   0.101297E+25
     0.024     0.339   0.776199E+24
     0.024     0.346   0.733229E+24
     0.024     0.354   0.874383E+24
     0.024     0.362   0.120094E+25
     0.024     0.370   0.167162E+25
     0.024     0.378   0.204222E+25
     0.024     0.386   0.166511E+25
     0.024     0.394   0.118467E+25
     0.024     0.402   0.840731E+24
     0.024     0.409   0.667802E+24
     0.024     0.417   0.654288E+24
     0.024     0.425   0.795803E+24
     0.024     0.433   0.109648E+25
     0.024     0.441   0.152156E+25
     0.024     0.449   0.185521E+25
     0.024     0.457   0.152283E+25
     0.024     0.465   0.109991E+25
     0.024     0.472   0.803448E+24
     0.024     0.480   0.670093E+24
     0.024     0.488   0.698588E+24
     0.024     0.496   0.897258E+24
     0.024     0.504   0.128142E+25
     0.024     0.512   0.181423E+25
     0.024     0.520   0.223013E+25
     0.024     0.528   0.181383E+25
     0.024     0.535   0.128344E+25
     0.024     0.543   0.908349E+24
     0.024     0.551   0.731317E+24
     0.024     0.559   0.746012E+24
     0.024     0.567   0.956340E+24
     0.024     0.575   0.137520E+25
     0.024     0.583   0.195952E+25
     0.024     0.591   0.241604E+25
     0.024     0.598   0.195828E+25
     0.024     0.606   0.137320E+25
     0.024     0.614   0.954682E+24
     0.024     0.622   0.746817E+24
     0.024     0.630   0.738205E+24
     0.024     0.638   0.926993E+24
     0.024     0.646   0.132146E+25
     0.024     0.654   0.187780E+25
     0.024     0.661   0.231406E+25
     0.024     0.669   0.187725E+25
     0.024     0.677   0.131758E+25
     0.024     0.685   0.913212E+24
     0.024     0.693   0.702119E+24
     0.024     0.701   0.667126E+24
     0.024     0.709   0.797996E+24
     0.024     0.717   0.109467E+25
     0.024     0.724   0.151976E+25
     0.024     0.732   0.185591E+25
     0.024     0.740   0.152757E+25
     0.024     0.748   0.111120E+25
     0.024     0.756   0.825359E+24
     0.024     0.764   0.709268E+24
     0.024     0.772   0.765784E+24
     0.024     0.780   0.100895E+25
     0.024     0.787   0.145951E+25
     0.024     0.795   0.207700E+25
     0.024     0.803   0.255762E+25
     0.024     0.811   0.208074E+25
     0.024     0.819   0.146790E+25
     0.024     0.827   0.102416E+25
     0.024     0.835   0.791886E+24
     0.024     0.843   0.753218E+24
     0.024     0.850   0.898045E+24
     0.024     0.858   0.122720E+25
     0.024     0.866   0.169910E+25
     0.024     0.874   0.206955E+25
     0.024     0.882   0.169157E+25
     0.024     0.890   0.120941E+25
     0.024     0.898   0.863533E+24
     0.024     0.906   0.689841E+24
     0.024     0.913   0.678917E+24
     0.024     0.921   0.829463E+24
     0.024     0.929   0.114924E+25
     0.024     0.937   0.160519E+25
     0.024     0.945   0.197321E+25
     0.024     0.953   0.164994E+25
     0.024     0.961   0.125511E+25
     0.024     0.969   0.102509E+25
     0.024     0.976   0.985620E+24
     0.024     0.984   0.104912E+25
     0.024     0.992   0.926474E+24
     0.024     1.000   0.114394E-70
     0.031     0.000   0.164127-258
     0.031     0.008   0.125457E+23
     0.031     0.016   0.264881E+23
     0.031     0.024   0.435835E+23
     0.031     0.031   0.664402E+23
     0.031     0.039   0.992353E+23
     0.031     0.047   0.148624E+24
     0.031     0.055   0.224520E+24
     0.031     0.063   0.339779E+24
     0.031     0.071   0.506537E+24
     0.031     0.079   0.724680E+24
     0.031     0.087   0.956594E+24
     0.031     0.094   0.109452E+25
     0.031     0.102   0.997476E+24
     0.031     0.110   0.816185E+24
     0.031     0.118   0.670680E+24
     0.031     0.126   0.615304E+24
     0.031     0.134   0.671228E+24
     0.031     0.142   0.846113E+24
     0.031     0.150   0.112766E+25
     0.031     0.157   0.144781E+25
     0.031     0.165   0.163203E+25
     0.031     0.173   0.145543E+25
     0.031     0.181   0.114666E+25
     0.031     0.189   0.885021E+24
     0.031     0.197   0.744970E+24
     0.031     0.205   0.746889E+24
     0.031     0.213   0.890862E+24
     0.031     0.220   0.115672E+25
     0.031     0.228   0.147034E+25
     0.031     0.236   0.165309E+25
     0.031     0.244   0.147743E+25
     0.031     0.252   0.117003E+25
     0.031     0.260   0.908416E+24
     0.031     0.268   0.765187E+24
     0.031     0.276   0.758566E+24
     0.031     0.283   0.886596E+24
     0.031     0.291   0.112858E+25
     0.031     0.299   0.141451E+25
     0.031     0.307   0.157853E+25
     0.031     0.315   0.141003E+25
     0.031     0.323   0.111698E+25
     0.031     0.331   0.861917E+24
     0.031     0.339   0.710220E+24
     0.031     0.346   0.676755E+24
     0.031     0.354   0.757969E+24
     0.031     0.362   0.935430E+24
     0.031     0.370   0.115257E+25
     0.031     0.378   0.127817E+25
     0.031     0.386   0.114642E+25
     0.031     0.394   0.920444E+24
     0.031     0.402   0.728032E+24
     0.031     0.409   0.621079E+24
     0.031     0.417   0.612114E+24
     0.031     0.425   0.699132E+24
     0.031     0.433   0.867080E+24
     0.031     0.441   0.106675E+25
     0.031     0.449   0.118242E+25
     0.031     0.457   0.106781E+25
     0.031     0.465   0.869903E+24
     0.031     0.472   0.705333E+24
     0.031     0.480   0.624569E+24
     0.031     0.488   0.644267E+24
     0.031     0.496   0.767924E+24
     0.031     0.504   0.982946E+24
     0.031     0.512   0.123265E+25
     0.031     0.520   0.137564E+25
     0.031     0.528   0.123079E+25
     0.031     0.535   0.981594E+24
     0.031     0.543   0.772461E+24
     0.031     0.551   0.664217E+24
     0.031     0.559   0.674701E+24
     0.031     0.567   0.805398E+24
     0.031     0.575   0.104004E+25
     0.031     0.583   0.131445E+25
     0.031     0.591   0.147200E+25
     0.031     0.598   0.131275E+25
     0.031     0.606   0.103703E+25
     0.031     0.614   0.801992E+24
     0.031     0.622   0.672520E+24
     0.031     0.630   0.665776E+24
     0.031     0.638   0.781138E+24
     0.031     0.646   0.100087E+25
     0.031     0.654   0.126191E+25
     0.031     0.661   0.141325E+25
     0.031     0.669   0.126264E+25
     0.031     0.677   0.999995E+24
     0.031     0.685   0.773384E+24
     0.031     0.693   0.641786E+24
     0.031     0.701   0.617794E+24
     0.031     0.709   0.697176E+24
     0.031     0.717   0.862550E+24
     0.031     0.724   0.106296E+25
     0.031     0.732   0.118162E+25
     0.031     0.740   0.107181E+25
     0.031     0.748   0.881002E+24
     0.031     0.756   0.726901E+24
     0.031     0.764   0.661703E+24
     0.031     0.772   0.704320E+24
     0.031     0.780   0.860366E+24
     0.031     0.787   0.111706E+25
     0.031     0.795   0.141054E+25
     0.031     0.803   0.157907E+25
     0.031     0.811   0.141453E+25
     0.031     0.819   0.112581E+25
     0.031     0.827   0.875609E+24
     0.031     0.835   0.729108E+24
     0.031     0.843   0.700725E+24
     0.031     0.850   0.786368E+24
     0.031     0.858   0.967082E+24
     0.031     0.866   0.118592E+25
     0.031     0.874   0.131154E+25
     0.031     0.882   0.117832E+25
     0.031     0.890   0.949601E+24
     0.031     0.898   0.753819E+24
     0.031     0.906   0.643962E+24
     0.031     0.913   0.634075E+24
     0.031     0.921   0.723888E+24
     0.031     0.929   0.899748E+24
     0.031     0.937   0.111213E+25
     0.031     0.945   0.124134E+25
     0.031     0.953   0.113513E+25
     0.031     0.961   0.950550E+24
     0.031     0.969   0.804216E+24
     0.031     0.976   0.721259E+24
     0.031     0.984   0.646842E+24
     0.031     0.992   0.449851E+24
     0.031     1.000   0.578548E-05
     0.039     0.000   0.335749E-05
     0.039     0.008   0.133285E+23
     0.039     0.016   0.279359E+23
     0.039     0.024   0.453318E+23
     0.039     0.031   0.675630E+23
     0.039     0.039   0.976180E+23
     0.039     0.047   0.139820E+24
     0.039     0.055   0.199853E+24
     0.039     0.063   0.283660E+24
     0.039     0.071   0.394033E+24
     0.039     0.079   0.523698E+24
     0.039     0.087   0.645965E+24
     0.039     0.094   0.712558E+24
     0.039     0.102   0.684630E+24
     0.039     0.110   0.608006E+24
     0.039     0.118   0.539209E+24
     0.039     0.126   0.514933E+24
     0.039     0.134   0.552748E+24
     0.039     0.142   0.655176E+24
     0.039     0.150   0.805793E+24
     0.039     0.157   0.957932E+24
     0.039     0.165   0.103217E+25
     0.039     0.173   0.964205E+24
     0.039     0.181   0.821156E+24
     0.039     0.189   0.685771E+24
     0.039     0.197   0.608772E+24
     0.039     0.205   0.610858E+24
     0.039     0.213   0.692114E+24
     0.039     0.220   0.832037E+24
     0.039     0.228   0.980212E+24
     0.039     0.236   0.105439E+25
     0.039     0.244   0.988304E+24
     0.039     0.252   0.847564E+24
     0.039     0.260   0.713617E+24
     0.039     0.268   0.635862E+24
     0.039     0.276   0.633684E+24
     0.039     0.283   0.706234E+24
     0.039     0.291   0.833331E+24
     0.039     0.299   0.967314E+24
     0.039     0.307   0.103145E+25
     0.039     0.315   0.963993E+24
     0.039     0.323   0.824830E+24
     0.039     0.331   0.688468E+24
     0.039     0.339   0.599818E+24
     0.039     0.346   0.576204E+24
     0.039     0.354   0.616971E+24
     0.039     0.362   0.705586E+24
     0.039     0.370   0.803937E+24
     0.039     0.378   0.851283E+24
     0.039     0.386   0.798829E+24
     0.039     0.394   0.693442E+24
     0.039     0.402   0.593568E+24
     0.039     0.409   0.534505E+24
     0.039     0.417   0.529867E+24
     0.039     0.425   0.578768E+24
     0.039     0.433   0.666748E+24
     0.039     0.441   0.760299E+24
     0.039     0.449   0.805910E+24
     0.039     0.457   0.761003E+24
     0.039     0.465   0.668637E+24
     0.039     0.472   0.582904E+24
     0.039     0.480   0.538036E+24
     0.039     0.488   0.549235E+24
     0.039     0.496   0.617726E+24
     0.039     0.504   0.728957E+24
     0.039     0.512   0.844222E+24
     0.039     0.520   0.898893E+24
     0.039     0.528   0.840898E+24
     0.039     0.535   0.724024E+24
     0.039     0.543   0.614964E+24
     0.039     0.551   0.554982E+24
     0.039     0.559   0.561335E+24
     0.039     0.567   0.634365E+24
     0.039     0.575   0.756658E+24
     0.039     0.583   0.884411E+24
     0.039     0.591   0.945635E+24
     0.039     0.598   0.882348E+24
     0.039     0.606   0.752827E+24
     0.039     0.614   0.629414E+24
     0.039     0.622   0.556363E+24
     0.039     0.630   0.551568E+24
     0.039     0.638   0.614988E+24
     0.039     0.646   0.729046E+24
     0.039     0.654   0.850933E+24
     0.039     0.661   0.911017E+24
     0.039     0.669   0.853031E+24
     0.039     0.677   0.731571E+24
     0.039     0.685   0.614262E+24
     0.039     0.693   0.541423E+24
     0.039     0.701   0.528023E+24
     0.039     0.709   0.572656E+24
     0.039     0.717   0.659787E+24
     0.039     0.724   0.754934E+24
     0.039     0.732   0.803960E+24
     0.039     0.740   0.764074E+24
     0.039     0.748   0.678595E+24
     0.039     0.756   0.602269E+24
     0.039     0.764   0.570282E+24
     0.039     0.772   0.598850E+24
     0.039     0.780   0.689621E+24
     0.039     0.787   0.826582E+24
     0.039     0.795   0.965907E+24
     0.039     0.803   0.103366E+25
     0.039     0.811   0.969783E+24
     0.039     0.819   0.834888E+24
     0.039     0.827   0.703561E+24
     0.039     0.835   0.620413E+24
     0.039     0.843   0.602255E+24
     0.039     0.850   0.647827E+24
     0.039     0.858   0.740023E+24
     0.039     0.866   0.840288E+24
     0.039     0.874   0.887657E+24
     0.039     0.882   0.833370E+24
     0.039     0.890   0.724545E+24
     0.039     0.898   0.620175E+24
     0.039     0.906   0.556389E+24
     0.039     0.913   0.547804E+24
     0.039     0.921   0.594485E+24
     0.039     0.929   0.682483E+24
     0.039     0.937   0.777797E+24
     0.039     0.945   0.825100E+24
     0.039     0.953   0.779767E+24
     0.039     0.961   0.685118E+24
     0.039     0.969   0.589022E+24
     0.039     0.976   0.504836E+24
     0.039     0.984   0.407279E+24
     0.039     0.992   0.246975E+24
     0.039     1.000   0.579258E-05
     0.047     0.000   0.336161E-05
     0.047     0.008   0.132063E+23
     0.047     0.016   0.275079E+23
     0.047     0.024   0.441138E+23
     0.047     0.031   0.644981E+23
     0.047     0.039   0.905837E+23
     0.047     0.047   0.124856E+24
     0.047     0.055   0.170150E+24
     0.047     0.063   0.228682E+24
     0.047     0.071   0.299898E+24
     0.047     0.079   0.377210E+24
     0.047     0.087   0.445396E+24
     0.047     0.094   0.483562E+24
     0.047     0.102   0.479844E+24
     0.047     0.110   0.450551E+24
     0.047     0.118   0.421537E+24
     0.047     0.126   0.413402E+24
     0.047     0.134   0.437151E+24
     0.047     0.142   0.493439E+24
     0.047     0.150   0.570669E+24
     0.047     0.157   0.642968E+24
     0.047     0.165   0.675573E+24
     0.047     0.173   0.647713E+24
     0.047     0.181   0.582076E+24
     0.047     0.189   0.515579E+24
     0.047     0.197   0.476498E+24
     0.047     0.205   0.478602E+24
     0.047     0.213   0.521966E+24
     0.047     0.220   0.592996E+24
     0.047     0.228   0.663658E+24
     0.047     0.236   0.697407E+24
     0.047     0.244   0.672136E+24
     0.047     0.252   0.609496E+24
     0.047     0.260   0.545483E+24
     0.047     0.268   0.507478E+24
     0.047     0.276   0.508422E+24
     0.047     0.283   0.547879E+24
     0.047     0.291   0.612496E+24
     0.047     0.299   0.675614E+24
     0.047     0.307   0.702890E+24
     0.047     0.315   0.673495E+24
     0.047     0.323   0.607101E+24
     0.047     0.331   0.536729E+24
     0.047     0.339   0.487575E+24
     0.047     0.346   0.471760E+24
     0.047     0.354   0.489659E+24
     0.047     0.362   0.530888E+24
     0.047     0.370   0.574409E+24
     0.047     0.378   0.593114E+24
     0.047     0.386   0.570502E+24
     0.047     0.394   0.521850E+24
     0.047     0.402   0.472881E+24
     0.047     0.409   0.443106E+24
     0.047     0.417   0.441624E+24
     0.047     0.425   0.467960E+24
     0.047     0.433   0.512548E+24
     0.047     0.441   0.556593E+24
     0.047     0.449   0.576130E+24
     0.047     0.457   0.556948E+24
     0.047     0.465   0.513537E+24
     0.047     0.472   0.470183E+24
     0.047     0.480   0.446033E+24
     0.047     0.488   0.450935E+24