Title="Temperature Data"
Variables="X","Y","T"
 
Zone I=   128, J=   128, F=POINT
     0.000     0.000   0.330620E-05
     0.000     0.008   0.187129E-05
     0.000     0.016   0.103330E-05
     0.000     0.024   0.556819E-06
     0.000     0.031   0.292908E-06
     0.000     0.039   0.150452E-06
     0.000     0.047   0.754793E-07
     0.000     0.055   0.369945E-07
     0.000     0.063   0.177189E-07
     0.000     0.071   0.829526E-08
     0.000     0.079   0.379685E-08
     0.000     0.087   0.169949E-08
     0.000     0.094   0.744071E-09
     0.000     0.102   0.318719E-09
     0.000     0.110   0.133596E-09
     0.000     0.118   0.548111E-10
     0.000     0.126   0.220150E-10
     0.000     0.134   0.865841E-11
     0.000     0.142   0.333513E-11
     0.000     0.150   0.125844E-11
     0.000     0.157   0.465258E-12
     0.000     0.165   0.168599E-12
     0.000     0.173   0.599340E-13
     0.000     0.181   0.209454E-13
     0.000     0.189   0.723397E-14
     0.000     0.197   0.249482E-14
     0.000     0.205   0.873645E-15
     0.000     0.213   0.319847E-15
     0.000     0.220   0.134324E-15
     0.000     0.228   0.839513E-16
     0.000     0.236   0.893729E-16
     0.000     0.244   0.117293E-15
     0.000     0.252   0.145591E-15
     0.000     0.260   0.157192E-15
     0.000     0.268   0.144988E-15
     0.000     0.276   0.115069E-15
     0.000     0.283   0.818806E-16
     0.000     0.291   0.593159E-16
     0.000     0.299   0.548597E-16
     0.000     0.307   0.683292E-16
     0.000     0.315   0.925793E-16
     0.000     0.323   0.115463E-15
     0.000     0.331   0.124784E-15
     0.000     0.339   0.115245E-15
     0.000     0.346   0.918773E-16
     0.000     0.354   0.664592E-16
     0.000     0.362   0.505093E-16
     0.000     0.370   0.504987E-16
     0.000     0.378   0.664262E-16
     0.000     0.386   0.918185E-16
     0.000     0.394   0.115150E-15
     0.000     0.402   0.124611E-15
     0.000     0.409   0.115063E-15
     0.000     0.417   0.915369E-16
     0.000     0.425   0.656759E-16
     0.000     0.433   0.487533E-16
     0.000     0.441   0.469720E-16
     0.000     0.449   0.602600E-16
     0.000     0.457   0.825542E-16
     0.000     0.465   0.103294E-15
     0.000     0.472   0.111785E-15
     0.000     0.480   0.103469E-15
     0.000     0.488   0.831180E-16
     0.000     0.496   0.617620E-16
     0.000     0.504   0.504663E-16
     0.000     0.512   0.558350E-16
     0.000     0.520   0.780871E-16
     0.000     0.528   0.110203E-15
     0.000     0.535   0.138997E-15
     0.000     0.543   0.150664E-15
     0.000     0.551   0.139258E-15
     0.000     0.559   0.111047E-15
     0.000     0.567   0.803350E-16
     0.000     0.575   0.610647E-16
     0.000     0.583   0.610650E-16
     0.000     0.591   0.803369E-16
     0.000     0.598   0.111055E-15
     0.000     0.606   0.139288E-15
     0.000     0.614   0.150777E-15
     0.000     0.622   0.139375E-15
     0.000     0.630   0.111335E-15
     0.000     0.638   0.810843E-16
     0.000     0.646   0.628037E-16
     0.000     0.654   0.645884E-16
     0.000     0.661   0.865106E-16
     0.000     0.669   0.120335E-15
     0.000     0.677   0.151167E-15
     0.000     0.685   0.163627E-15
     0.000     0.693   0.150994E-15
     0.000     0.701   0.119777E-15
     0.000     0.709   0.850257E-16
     0.000     0.717   0.611433E-16
     0.000     0.724   0.558611E-16
     0.000     0.732   0.690682E-16
     0.000     0.740   0.937776E-16
     0.000     0.748   0.118401E-15
     0.000     0.756   0.131932E-15
     0.000     0.764   0.130641E-15
     0.000     0.772   0.120071E-15
     0.000     0.780   0.108559E-15
     0.000     0.787   0.977283E-16
     0.000     0.795   0.799699E-16
     0.000     0.803   0.467639E-16
     0.000     0.811    0.00000    
     0.000     0.819    0.00000    
     0.000     0.827   0.204162E-03
     0.000     0.835   0.392786E-03
     0.000     0.843   0.552299E-03
     0.000     0.850   0.672708E-03
     0.000     0.858   0.748609E-03
     0.000     0.866   0.779435E-03
     0.000     0.874   0.768991E-03
     0.000     0.882   0.724418E-03
     0.000     0.890   0.654837E-03
     0.000     0.898   0.569950E-03
     0.000     0.906   0.478820E-03
     0.000     0.913   0.388997E-03
     0.000     0.921   0.306046E-03
     0.000     0.929   0.233451E-03
     0.000     0.937   0.172816E-03
     0.000     0.945   0.124251E-03
     0.000     0.953   0.868242E-04
     0.000     0.961   0.590015E-04
     0.000     0.969   0.390119E-04
     0.000     0.976   0.251102E-04
     0.000     0.984   0.157402E-04
     0.000     0.992   0.961281E-05
     0.000     1.000   0.572180E-05
     0.008     0.000   0.332053E-05
     0.008     0.008   0.367282E+22
     0.008     0.016   0.820865E+22
     0.008     0.024   0.144814E+23
     0.008     0.031   0.233392E+23
     0.008     0.039   0.354839E+23
     0.008     0.047   0.512614E+23
     0.008     0.055   0.704062E+23
     0.008     0.063   0.918432E+23
     0.008     0.071   0.113687E+24
     0.008     0.079   0.133544E+24
     0.008     0.087   0.149111E+24
     0.008     0.094   0.158902E+24
     0.008     0.102   0.162796E+24
     0.008     0.110   0.162146E+24
     0.008     0.118   0.159314E+24
     0.008     0.126   0.156807E+24
     0.008     0.134   0.156353E+24
     0.008     0.142   0.158318E+24
     0.008     0.150   0.161722E+24
     0.008     0.157   0.164838E+24
     0.008     0.165   0.166096E+24
     0.008     0.173   0.164876E+24
     0.008     0.181   0.161836E+24
     0.008     0.189   0.158608E+24
     0.008     0.197   0.157036E+24
     0.008     0.205   0.158305E+24
     0.008     0.213   0.162383E+24
     0.008     0.220   0.168049E+24
     0.008     0.228   0.173488E+24
     0.008     0.236   0.177188E+24
     0.008     0.244   0.178710E+24
     0.008     0.252   0.178947E+24
     0.008     0.260   0.179721E+24
     0.008     0.268   0.182887E+24
     0.008     0.276   0.189354E+24
     0.008     0.283   0.198475E+24
     0.008     0.291   0.208139E+24
     0.008     0.299   0.215542E+24
     0.008     0.307   0.218333E+24
     0.008     0.315   0.215602E+24
     0.008     0.323   0.208281E+24
     0.008     0.331   0.198753E+24
     0.008     0.339   0.189853E+24
     0.008     0.346   0.183737E+24
     0.008     0.354   0.181113E+24
     0.008     0.362   0.181168E+24
     0.008     0.370   0.182175E+24
     0.008     0.378   0.182487E+24
     0.008     0.386   0.181412E+24
     0.008     0.394   0.179575E+24
     0.008     0.402   0.178575E+24
     0.008     0.409   0.180131E+24
     0.008     0.417   0.185105E+24
     0.008     0.425   0.192889E+24
     0.008     0.433   0.201465E+24
     0.008     0.441   0.208144E+24
     0.008     0.449   0.210656E+24
     0.008     0.457   0.208115E+24
     0.008     0.465   0.201393E+24
     0.008     0.472   0.192738E+24
     0.008     0.480   0.184813E+24
     0.008     0.488   0.179585E+24
     0.008     0.496   0.177590E+24
     0.008     0.504   0.177859E+24
     0.008     0.512   0.178525E+24
     0.008     0.520   0.177796E+24
     0.008     0.528   0.174846E+24
     0.008     0.535   0.170189E+24
     0.008     0.543   0.165395E+24
     0.008     0.551   0.162301E+24
     0.008     0.559   0.162080E+24
     0.008     0.567   0.164641E+24
     0.008     0.575   0.168614E+24
     0.008     0.583   0.171949E+24
     0.008     0.591   0.172829E+24
     0.008     0.598   0.170497E+24
     0.008     0.606   0.165590E+24
     0.008     0.614   0.159841E+24
     0.008     0.622   0.155288E+24
     0.008     0.630   0.153380E+24
     0.008     0.638   0.154377E+24
     0.008     0.646   0.157330E+24
     0.008     0.654   0.160631E+24
     0.008     0.661   0.162862E+24
     0.008     0.669   0.163545E+24
     0.008     0.677   0.163405E+24
     0.008     0.685   0.164030E+24
     0.008     0.693   0.167064E+24
     0.008     0.701   0.173313E+24
     0.008     0.709   0.182204E+24
     0.008     0.717   0.191873E+24
     0.008     0.724   0.199878E+24
     0.008     0.732   0.204234E+24
     0.008     0.740   0.204302E+24
     0.008     0.748   0.201105E+24
     0.008     0.756   0.196897E+24
     0.008     0.764   0.194175E+24
     0.008     0.772   0.194587E+24
     0.008     0.780   0.198221E+24
     0.008     0.787   0.203621E+24
     0.008     0.795   0.208508E+24
     0.008     0.803   0.210891E+24
     0.008     0.811   0.210031E+24
     0.008     0.819   0.206806E+24
     0.008     0.827   0.203309E+24
     0.008     0.835   0.201842E+24
     0.008     0.843   0.203789E+24
     0.008     0.850   0.208893E+24
     0.008     0.858   0.215280E+24
     0.008     0.866   0.220236E+24
     0.008     0.874   0.221386E+24
     0.008     0.882   0.217754E+24
     0.008     0.890   0.210204E+24
     0.008     0.898   0.201082E+24
     0.008     0.906   0.193232E+24
     0.008     0.913   0.188820E+24
     0.008     0.921   0.188484E+24
     0.008     0.929   0.191101E+24
     0.008     0.937   0.194196E+24
     0.008     0.945   0.194727E+24
     0.008     0.953   0.189872E+24
     0.008     0.961   0.177563E+24
     0.008     0.969   0.156692E+24
     0.008     0.976   0.127149E+24
     0.008     0.984   0.898064E+23
     0.008     0.992   0.465194E+23
     0.008     1.000   0.574300E-05
     0.016     0.000   0.333284E-05
     0.016     0.008   0.677173E+22
     0.016     0.016   0.151235E+23
     0.016     0.024   0.266530E+23
     0.016     0.031   0.429076E+23
     0.016     0.039   0.651632E+23
     0.016     0.047   0.940433E+23
     0.016     0.055   0.129055E+24
     0.016     0.063   0.168233E+24
     0.016     0.071   0.208139E+24
     0.016     0.079   0.244414E+24
     0.016     0.087   0.272869E+24
     0.016     0.094   0.290800E+24
     0.016     0.102   0.297992E+24
     0.016     0.110   0.296901E+24
     0.016     0.118   0.291820E+24
     0.016     0.126   0.287307E+24
     0.016     0.134   0.286501E+24
     0.016     0.142   0.290073E+24
     0.016     0.150   0.296252E+24
     0.016     0.157   0.301907E+24
     0.016     0.165   0.304192E+24
     0.016     0.173   0.301985E+24
     0.016     0.181   0.296479E+24
     0.016     0.189   0.290638E+24
     0.016     0.197   0.287806E+24
     0.016     0.205   0.290132E+24
     0.016     0.213   0.297563E+24
     0.016     0.220   0.307880E+24
     0.016     0.228   0.317791E+24
     0.016     0.236   0.324555E+24
     0.016     0.244   0.327378E+24
     0.016     0.252   0.327878E+24
     0.016     0.260   0.329361E+24
     0.016     0.268   0.335190E+24
     0.016     0.276   0.347005E+24
     0.016     0.283   0.363628E+24
     0.016     0.291   0.381222E+24
     0.016     0.299   0.394693E+24
     0.016     0.307   0.399769E+24
     0.016     0.315   0.394799E+24
     0.016     0.323   0.381478E+24
     0.016     0.331   0.364128E+24
     0.016     0.339   0.347905E+24
     0.016     0.346   0.336728E+24
     0.016     0.354   0.331892E+24
     0.016     0.362   0.331927E+24
     0.016     0.370   0.333711E+24
     0.016     0.378   0.334256E+24
     0.016     0.386   0.332311E+24
     0.016     0.394   0.329005E+24
     0.016     0.402   0.327239E+24
     0.016     0.409   0.330124E+24
     0.016     0.417   0.339214E+24
     0.016     0.425   0.353399E+24
     0.016     0.433   0.369011E+24
     0.016     0.441   0.381162E+24
     0.016     0.449   0.385732E+24
     0.016     0.457   0.381110E+24
     0.016     0.465   0.368878E+24
     0.016     0.472   0.353123E+24
     0.016     0.480   0.338676E+24
     0.016     0.488   0.329118E+24
     0.016     0.496   0.325425E+24
     0.016     0.504   0.325846E+24
     0.016     0.512   0.326995E+24
     0.016     0.520   0.325626E+24
     0.016     0.528   0.320238E+24
     0.016     0.535   0.311760E+24
     0.016     0.543   0.303043E+24
     0.016     0.551   0.297414E+24
     0.016     0.559   0.297001E+24
     0.016     0.567   0.301635E+24
     0.016     0.575   0.308832E+24
     0.016     0.583   0.314868E+24
     0.016     0.591   0.316449E+24
     0.016     0.598   0.312200E+24
     0.016     0.606   0.303276E+24
     0.016     0.614   0.292819E+24
     0.016     0.622   0.284533E+24
     0.016     0.630   0.281047E+24
     0.016     0.638   0.282836E+24
     0.016     0.646   0.288185E+24
     0.016     0.654   0.294178E+24
     0.016     0.661   0.298251E+24
     0.016     0.669   0.299535E+24
     0.016     0.677   0.299348E+24
     0.016     0.685   0.300567E+24
     0.016     0.693   0.306168E+24
     0.016     0.701   0.317608E+24
     0.016     0.709   0.333839E+24
     0.016     0.717   0.351472E+24
     0.016     0.724   0.366072E+24
     0.016     0.732   0.374034E+24
     0.016     0.740   0.374201E+24
     0.016     0.748   0.368429E+24
     0.016     0.756   0.360810E+24
     0.016     0.764   0.355882E+24
     0.016     0.772   0.356637E+24
     0.016     0.780   0.363238E+24
     0.016     0.787   0.373042E+24
     0.016     0.795   0.381921E+24
     0.016     0.803   0.386259E+24
     0.016     0.811   0.384715E+24
     0.016     0.819   0.378885E+24
     0.016     0.827   0.372565E+24
     0.016     0.835   0.369929E+24
     0.016     0.843   0.373486E+24
     0.016     0.850   0.382765E+24
     0.016     0.858   0.394364E+24
     0.016     0.866   0.403354E+24
     0.016     0.874   0.405424E+24
     0.016     0.882   0.398801E+24
     0.016     0.890   0.385053E+24
     0.016     0.898   0.368446E+24
     0.016     0.906   0.354142E+24
     0.016     0.913   0.346077E+24
     0.016     0.921   0.345408E+24
     0.016     0.929   0.350091E+24
     0.016     0.937   0.355623E+24
     0.016     0.945   0.356464E+24
     0.016     0.953   0.347470E+24
     0.016     0.961   0.324864E+24
     0.016     0.969   0.286626E+24
     0.016     0.976   0.232550E+24
     0.016     0.984   0.164235E+24
     0.016     0.992   0.850675E+23
     0.016     1.000   0.576069E-05
     0.024     0.000   0.334310E-05
     0.024     0.008   0.887715E+22
     0.024     0.016   0.198016E+23
     0.024     0.024   0.348393E+23
     0.024     0.031   0.559828E+23
     0.024     0.039   0.848665E+23
     0.024     0.047   0.122277E+24
     0.024     0.055   0.167562E+24
     0.024     0.063   0.218179E+24
     0.024     0.071   0.269703E+24
     0.024     0.079   0.316536E+24
     0.024     0.087   0.353309E+24
     0.024     0.094   0.376559E+24
     0.024     0.102   0.386012E+24
     0.024     0.110   0.384811E+24
     0.024     0.118   0.378453E+24
     0.024     0.126   0.372767E+24
     0.024     0.134   0.371777E+24
     0.024     0.142   0.376352E+24
     0.024     0.150   0.384243E+24
     0.024     0.157   0.391464E+24
     0.024     0.165   0.394385E+24
     0.024     0.173   0.391581E+24
     0.024     0.181   0.384577E+24
     0.024     0.189   0.377154E+24
     0.024     0.197   0.373583E+24
     0.024     0.205   0.376607E+24
     0.024     0.213   0.386156E+24
     0.024     0.220   0.399402E+24
     0.024     0.228   0.412146E+24
     0.024     0.236   0.420891E+24
     0.024     0.244   0.424625E+24
     0.024     0.252   0.425417E+24
     0.024     0.260   0.427481E+24
     0.024     0.268   0.435102E+24
     0.024     0.276   0.450361E+24
     0.024     0.283   0.471738E+24
     0.024     0.291   0.494320E+24
     0.024     0.299   0.511597E+24
     0.024     0.307   0.518102E+24
     0.024     0.315   0.511729E+24
     0.024     0.323   0.494640E+24
     0.024     0.331   0.472366E+24
     0.024     0.339   0.451499E+24
     0.024     0.346   0.437060E+24
     0.024     0.354   0.430723E+24
     0.024     0.362   0.430630E+24
     0.024     0.370   0.432810E+24
     0.024     0.378   0.433462E+24
     0.024     0.386   0.430990E+24
     0.024     0.394   0.426833E+24
     0.024     0.402   0.424682E+24
     0.024     0.409   0.428496E+24
     0.024     0.417   0.440240E+24
     0.024     0.425   0.458478E+24
     0.024     0.433   0.478513E+24
     0.024     0.441   0.494094E+24
     0.024     0.449   0.499951E+24
     0.024     0.457   0.494025E+24
     0.024     0.465   0.478340E+24
     0.024     0.472   0.458117E+24
     0.024     0.480   0.439535E+24
     0.024     0.488   0.427178E+24
     0.024     0.496   0.422307E+24
     0.024     0.504   0.422697E+24
     0.024     0.512   0.424036E+24
     0.024     0.520   0.422187E+24
     0.024     0.528   0.415232E+24
     0.024     0.535   0.404354E+24
     0.024     0.543   0.393187E+24
     0.024     0.551   0.385970E+24
     0.024     0.559   0.385416E+24
     0.024     0.567   0.391305E+24
     0.024     0.575   0.400464E+24
     0.024     0.583   0.408137E+24
     0.024     0.591   0.410120E+24
     0.024     0.598   0.404656E+24
     0.024     0.606   0.393220E+24
     0.024     0.614   0.379822E+24
     0.024     0.622   0.369191E+24
     0.024     0.630   0.364689E+24
     0.024     0.638   0.366930E+24
     0.024     0.646   0.373736E+24
     0.024     0.654   0.381397E+24
     0.024     0.661   0.386648E+24
     0.024     0.669   0.388385E+24
     0.024     0.677   0.388289E+24
     0.024     0.685   0.390027E+24
     0.024     0.693   0.397385E+24
     0.024     0.701   0.412205E+24
     0.024     0.709   0.433135E+24
     0.024     0.717   0.455834E+24
     0.024     0.724   0.474631E+24
     0.024     0.732   0.484921E+24
     0.024     0.740   0.485226E+24
     0.024     0.748   0.477921E+24
     0.024     0.756   0.468235E+24
     0.024     0.764   0.461970E+24
     0.024     0.772   0.462950E+24
     0.024     0.780   0.471389E+24
     0.024     0.787   0.483920E+24
     0.024     0.795   0.495275E+24
     0.024     0.803   0.500842E+24
     0.024     0.811   0.498910E+24
     0.024     0.819   0.491515E+24
     0.024     0.827   0.483501E+24
     0.024     0.835   0.480192E+24
     0.024     0.843   0.484784E+24
     0.024     0.850   0.496669E+24
     0.024     0.858   0.511495E+24
     0.024     0.866   0.522963E+24
     0.024     0.874   0.525567E+24
     0.024     0.882   0.517042E+24
     0.024     0.890   0.499395E+24
     0.024     0.898   0.478076E+24
     0.024     0.906   0.459688E+24
     0.024     0.913   0.449264E+24
     0.024     0.921   0.448280E+24
     0.024     0.929   0.454117E+24
     0.024     0.937   0.460997E+24
     0.024     0.945   0.461803E+24
     0.024     0.953   0.449920E+24
     0.024     0.961   0.420478E+24
     0.024     0.969   0.370870E+24
     0.024     0.976   0.300828E+24
     0.024     0.984   0.212417E+24
     0.024     0.992   0.110012E+24
     0.024     1.000   0.577485E-05
     0.031     0.000   0.335132E-05
     0.031     0.008   0.981822E+22
     0.031     0.016   0.218649E+23
     0.031     0.024   0.383817E+23
     0.031     0.031   0.615191E+23
     0.031     0.039   0.930271E+23
     0.031     0.047   0.133730E+24
     0.031     0.055   0.182896E+24
     0.031     0.063   0.237766E+24
     0.031     0.071   0.293566E+24
     0.031     0.079   0.344283E+24
     0.031     0.087   0.384160E+24
     0.031     0.094   0.409490E+24
     0.031     0.102   0.419981E+24
     0.031     0.110   0.418999E+24
     0.031     0.118   0.412418E+24
     0.031     0.126   0.406475E+24
     0.031     0.134   0.405478E+24
     0.031     0.142   0.410376E+24
     0.031     0.150   0.418789E+24
     0.031     0.157   0.426484E+24
     0.031     0.165   0.429604E+24
     0.031     0.173   0.426637E+24
     0.031     0.181   0.419209E+24
     0.031     0.189   0.411352E+24
     0.031     0.197   0.407615E+24
     0.031     0.205   0.410919E+24
     0.031     0.213   0.421192E+24
     0.031     0.220   0.435424E+24
     0.031     0.228   0.449143E+24
     0.031     0.236   0.458631E+24
     0.031     0.244   0.462814E+24
     0.031     0.252   0.463894E+24
     0.031     0.260   0.466357E+24
     0.031     0.268   0.474755E+24
     0.031     0.276   0.491285E+24
     0.031     0.283   0.514307E+24
     0.031     0.291   0.538561E+24
     0.031     0.299   0.557093E+24
     0.031     0.307   0.564065E+24
     0.031     0.315   0.557228E+24
     0.031     0.323   0.538893E+24
     0.031     0.331   0.514964E+24
     0.031     0.339   0.492486E+24
     0.031     0.346   0.476839E+24
     0.031     0.354   0.469834E+24
     0.031     0.362   0.469523E+24
     0.031     0.370   0.471698E+24
     0.031     0.378   0.472323E+24
     0.031     0.386   0.469706E+24
     0.031     0.394   0.465372E+24
     0.031     0.402   0.463241E+24
     0.031     0.409   0.467505E+24
     0.031     0.417   0.480233E+24
     0.031     0.425   0.499868E+24
     0.031     0.433   0.521380E+24
     0.031     0.441   0.538087E+24
     0.031     0.449   0.544364E+24
     0.031     0.457   0.538012E+24
     0.031     0.465   0.521189E+24
     0.031     0.472   0.499470E+24
     0.031     0.480   0.479456E+24
     0.031     0.488   0.466050E+24
     0.031     0.496   0.460617E+24
     0.031     0.504   0.460807E+24
     0.031     0.512   0.462038E+24
     0.031     0.520   0.459911E+24
     0.031     0.528   0.452381E+24
     0.031     0.535   0.440705E+24
     0.031     0.543   0.428745E+24
     0.031     0.551   0.421009E+24
     0.031     0.559   0.420377E+24
     0.031     0.567   0.426611E+24
     0.031     0.575   0.436326E+24
     0.031     0.583   0.444454E+24
     0.031     0.591   0.446513E+24
     0.031     0.598   0.440632E+24
     0.031     0.606   0.428377E+24
     0.031     0.614   0.414025E+24
     0.031     0.622   0.402615E+24
     0.031     0.630   0.397737E+24
     0.031     0.638   0.400061E+24
     0.031     0.646   0.407279E+24
     0.031     0.654   0.415458E+24
     0.031     0.661   0.421132E+24
     0.031     0.669   0.423134E+24
     0.031     0.677   0.423251E+24
     0.031     0.685   0.425382E+24
     0.031     0.693   0.433538E+24
     0.031     0.701   0.449661E+24
     0.031     0.709   0.472284E+24
     0.031     0.717   0.496763E+24
     0.031     0.724   0.517036E+24
     0.031     0.732   0.528194E+24
     0.031     0.740   0.528661E+24
     0.031     0.748   0.520974E+24
     0.031     0.756   0.510717E+24
     0.031     0.764   0.504080E+24
     0.031     0.772   0.505149E+24
     0.031     0.780   0.514163E+24
     0.031     0.787   0.527540E+24
     0.031     0.795   0.539672E+24
     0.031     0.803   0.545650E+24
     0.031     0.811   0.543650E+24
     0.031     0.819   0.535844E+24
     0.031     0.827   0.527388E+24
     0.031     0.835   0.523948E+24
     0.031     0.843   0.528919E+24
     0.031     0.850   0.541644E+24
     0.031     0.858   0.557471E+24
     0.031     0.866   0.569679E+24
     0.031     0.874   0.572395E+24
     0.031     0.882   0.563203E+24
     0.031     0.890   0.544248E+24
     0.031     0.898   0.521351E+24
     0.031     0.906   0.501561E+24
     0.031     0.913   0.490256E+24
     0.031     0.921   0.489010E+24
     0.031     0.929   0.495011E+24
     0.031     0.937   0.502061E+24
     0.031     0.945   0.502510E+24
     0.031     0.953   0.489228E+24
     0.031     0.961   0.456956E+24
     0.031     0.969   0.402868E+24
     0.031     0.976   0.326672E+24
     0.031     0.984   0.230608E+24
     0.031     0.992   0.119414E+24
     0.031     1.000   0.578548E-05
     0.039     0.000   0.335749E-05
     0.039     0.008   0.967802E+22
     0.039     0.016   0.215090E+23
     0.039     0.024   0.376501E+23
     0.039     0.031   0.601565E+23
     0.039     0.039   0.906830E+23
     0.039     0.047   0.129986E+24
     0.039     0.055   0.177335E+24
     0.039     0.063   0.230069E+24
     0.039     0.071   0.283634E+24
     0.039     0.079   0.332315E+24
     0.039     0.087   0.370657E+24
     0.039     0.094   0.395158E+24
     0.039     0.102   0.405544E+24
     0.039     0.110   0.404993E+24
     0.039     0.118   0.399053E+24
     0.039     0.126   0.393612E+24
     0.039     0.134   0.392748E+24
     0.039     0.142   0.397377E+24
     0.039     0.150   0.405287E+24
     0.039     0.157   0.412517E+24
     0.039     0.165   0.415457E+24
     0.039     0.173   0.412694E+24
     0.039     0.181   0.405760E+24
     0.039     0.189   0.398443E+24
     0.039     0.197   0.395016E+24
     0.039     0.205   0.398223E+24
     0.039     0.213   0.407998E+24
     0.039     0.220   0.421516E+24
     0.039     0.228   0.434583E+24
     0.039     0.236   0.443712E+24
     0.039     0.244   0.447898E+24
     0.039     0.252   0.449212E+24
     0.039     0.260   0.451859E+24
     0.039     0.268   0.460100E+24
     0.039     0.276   0.475973E+24
     0.039     0.283   0.497910E+24
     0.039     0.291   0.520942E+24
     0.039     0.299   0.538508E+24
     0.039     0.307   0.545111E+24
     0.039     0.315   0.538630E+24
     0.039     0.323   0.521244E+24
     0.039     0.331   0.498515E+24
     0.039     0.339   0.477091E+24
     0.039     0.346   0.462060E+24
     0.039     0.354   0.455163E+24
     0.039     0.362   0.454604E+24
     0.039     0.370   0.456462E+24
     0.039     0.378   0.456964E+24
     0.039     0.386   0.454525E+24
     0.039     0.394   0.450572E+24
     0.039     0.402   0.448769E+24
     0.039     0.409   0.453027E+24
     0.039     0.417   0.465255E+24
     0.039     0.425   0.483956E+24
     0.039     0.433   0.504372E+24
     0.039     0.441   0.520202E+24
     0.039     0.449   0.526145E+24
     0.039     0.457   0.520128E+24
     0.039     0.465   0.504185E+24
     0.039     0.472   0.483565E+24
     0.039     0.480   0.464490E+24
     0.039     0.488   0.451594E+24
     0.039     0.496   0.446186E+24
     0.039     0.504   0.446081E+24
     0.039     0.512   0.446993E+24
     0.039     0.520   0.444797E+24
     0.039     0.528   0.437573E+24
     0.039     0.535   0.426495E+24
     0.039     0.543   0.415181E+24
     0.039     0.551   0.407854E+24
     0.039     0.559   0.407210E+24
     0.039     0.567   0.413017E+24
     0.039     0.575   0.422091E+24
     0.039     0.583   0.429668E+24
     0.039     0.591   0.431536E+24
     0.039     0.598   0.425934E+24
     0.039     0.606   0.414334E+24
     0.039     0.614   0.400751E+24
     0.039     0.622   0.389928E+24
     0.039     0.630   0.385245E+24
     0.039     0.638   0.387348E+24
     0.039     0.646   0.394089E+24
     0.039     0.654   0.401794E+24
     0.039     0.661   0.407226E+24
     0.039     0.669   0.409294E+24
     0.039     0.677   0.409679E+24
     0.039     0.685   0.412027E+24
     0.039     0.693   0.420086E+24
     0.039     0.701   0.435648E+24
     0.039     0.709   0.457305E+24
     0.039     0.717   0.480668E+24
     0.039     0.724   0.500023E+24
     0.039     0.732   0.510749E+24
     0.039     0.740   0.511367E+24
     0.039     0.748   0.504268E+24
     0.039     0.756   0.494710E+24
     0.039     0.764   0.488524E+24
     0.039     0.772   0.489563E+24
     0.039     0.780   0.498060E+24
     0.039     0.787   0.510660E+24
     0.039     0.795   0.522100E+24
     0.039     0.803   0.527774E+24
     0.039     0.811   0.525971E+24
     0.039     0.819   0.518728E+24
     0.039     0.827   0.510887E+24
     0.039     0.835   0.507763E+24
     0.039     0.843   0.512533E+24
     0.039     0.850   0.524565E+24
     0.039     0.858   0.539473E+24
     0.039     0.866   0.550929E+24
     0.039     0.874   0.553406E+24
     0.039     0.882   0.544633E+24
     0.039     0.890   0.526634E+24
     0.039     0.898   0.504894E+24
     0.039     0.906   0.486055E+24
     0.039     0.913   0.475186E+24
     0.039     0.921   0.473766E+24
     0.039     0.929   0.479133E+24
     0.039     0.937   0.485405E+24
     0.039     0.945   0.485310E+24
     0.039     0.953   0.472051E+24
     0.039     0.961   0.440593E+24
     0.039     0.969   0.388223E+24
     0.039     0.976   0.314660E+24
     0.039     0.984   0.222057E+24
     0.039     0.992   0.114963E+24
     0.039     1.000   0.579258E-05
     0.047     0.000   0.336161E-05
     0.047     0.008   0.872245E+22
     0.047     0.016   0.193397E+23
     0.047     0.024   0.337414E+23
     0.047     0.031   0.537123E+23
     0.047     0.039   0.806710E+23
     0.047     0.047   0.115242E+24
     0.047     0.055   0.156753E+24
     0.047     0.063   0.202874E+24
     0.047     0.071   0.249652E+24
     0.047     0.079   0.292161E+24
     0.047     0.087   0.325713E+24
     0.047     0.094   0.347306E+24
     0.047     0.102   0.356712E+24
     0.047     0.110   0.356649E+24
     0.047     0.118   0.351863E+24
     0.047     0.126   0.347391E+24
     0.047     0.134   0.346734E+24
     0.047     0.142   0.350697E+24
     0.047     0.150   0.357426E+24
     0.047     0.157   0.363571E+24
     0.047     0.165   0.366079E+24
     0.047     0.173   0.363757E+24
     0.047     0.181   0.357910E+24
     0.047     0.189   0.351760E+24
     0.047     0.197   0.348938E+24
     0.047     0.205   0.351776E+24
     0.047     0.213   0.360219E+24
     0.047     0.220   0.371870E+24
     0.047     0.228   0.383170E+24
     0.047     0.236   0.391163E+24
     0.047     0.244   0.395002E+24
     0.047     0.252   0.396446E+24
     0.047     0.260   0.399059E+24
     0.047     0.268   0.406447E+24
     0.047     0.276   0.420316E+24
     0.047     0.283   0.439299E+24
     0.047     0.291   0.459144E+24
     0.047     0.299   0.474246E+24
     0.047     0.307   0.479916E+24
     0.047     0.315   0.474345E+24
     0.047     0.323   0.459392E+24
     0.047     0.331   0.439803E+24
     0.047     0.339   0.421260E+24
     0.047     0.346   0.408125E+24
     0.047     0.354   0.401919E+24
     0.047     0.362   0.401155E+24
     0.047     0.370   0.402532E+24
     0.047     0.378   0.402865E+24
     0.047     0.386   0.400814E+24
     0.047     0.394   0.397583E+24
     0.047     0.402   0.396266E+24
     0.047     0.409   0.400158E+24
     0.047     0.417   0.410844E+24
     0.047     0.425   0.427015E+24
     0.047     0.433   0.444593E+24
     0.047     0.441   0.458193E+24
     0.047     0.449   0.463294E+24
     0.047     0.457   0.458127E+24
     0.047     0.465   0.444425E+24
     0.047     0.472   0.426664E+24
     0.047     0.480   0.410155E+24
     0.047     0.488   0.398867E+24