Title="Temperature Data"
Variables="X","Y","T"
 
Zone I=    64, J=    64, F=POINT
     0.000     0.000    0.00000    
     0.000     0.016    0.00000    
     0.000     0.032    0.00000    
     0.000     0.048    0.00000    
     0.000     0.063    0.00000    
     0.000     0.079    0.00000    
     0.000     0.095    0.00000    
     0.000     0.111    0.00000    
     0.000     0.127    0.00000    
     0.000     0.143    0.00000    
     0.000     0.159    0.00000    
     0.000     0.175    0.00000    
     0.000     0.190    0.00000    
     0.000     0.206    0.00000    
     0.000     0.222    0.00000    
     0.000     0.238    0.00000    
     0.000     0.254    0.00000    
     0.000     0.270    0.00000    
     0.000     0.286    0.00000    
     0.000     0.302    0.00000    
     0.000     0.317    0.00000    
     0.000     0.333    0.00000    
     0.000     0.349    0.00000    
     0.000     0.365    0.00000    
     0.000     0.381    0.00000    
     0.000     0.397    0.00000    
     0.000     0.413    0.00000    
     0.000     0.429    0.00000    
     0.000     0.444    0.00000    
     0.000     0.460    0.00000    
     0.000     0.476    0.00000    
     0.000     0.492    0.00000    
     0.000     0.508    0.00000    
     0.000     0.524    0.00000    
     0.000     0.540    0.00000    
     0.000     0.556    0.00000    
     0.000     0.571    0.00000    
     0.000     0.587    0.00000    
     0.000     0.603    0.00000    
     0.000     0.619    0.00000    
     0.000     0.635    0.00000    
     0.000     0.651    0.00000    
     0.000     0.667    0.00000    
     0.000     0.683    0.00000    
     0.000     0.698    0.00000    
     0.000     0.714    0.00000    
     0.000     0.730    0.00000    
     0.000     0.746    0.00000    
     0.000     0.762    0.00000    
     0.000     0.778    0.00000    
     0.000     0.794    0.00000    
     0.000     0.810    0.00000    
     0.000     0.825    0.00000    
     0.000     0.841    0.00000    
     0.000     0.857    0.00000    
     0.000     0.873    0.00000    
     0.000     0.889    0.00000    
     0.000     0.905    0.00000    
     0.000     0.921    0.00000    
     0.000     0.937    0.00000    
     0.000     0.952    0.00000    
     0.000     0.968    0.00000    
     0.000     0.984    0.00000    
     0.000     1.000    0.00000    
     0.016     0.000   0.498459E-01
     0.016     0.016   0.394081E-01
     0.016     0.032   0.297411E-01
     0.016     0.048   0.213610E-01
     0.016     0.063   0.145657E-01
     0.016     0.079   0.941178E-02
     0.016     0.095   0.575497E-02
     0.016     0.111   0.332677E-02
     0.016     0.127   0.181691E-02
     0.016     0.143   0.937182E-03
     0.016     0.159   0.456496E-03
     0.016     0.175   0.209989E-03
     0.016     0.190   0.912394E-04
     0.016     0.206   0.374564E-04
     0.016     0.222   0.145341E-04
     0.016     0.238   0.533281E-05
     0.016     0.254   0.185111E-05
     0.016     0.270   0.608171E-06
     0.016     0.286   0.189213E-06
     0.016     0.302   0.557728E-07
     0.016     0.317   0.155828E-07
     0.016     0.333   0.412881E-08
     0.016     0.349   0.103788E-08
     0.016     0.365   0.247623E-09
     0.016     0.381   0.560950E-10
     0.016     0.397   0.120697E-10
     0.016     0.413   0.246741E-11
     0.016     0.429   0.479378E-12
     0.016     0.444   0.885337E-13
     0.016     0.460   0.155459E-13
     0.016     0.476   0.259577E-14
     0.016     0.492   0.412197E-15
     0.016     0.508   0.622527E-16
     0.016     0.524   0.894197E-17
     0.016     0.540   0.122156E-17
     0.016     0.556   0.158697E-18
     0.016     0.571   0.196037E-19
     0.016     0.587   0.230218E-20
     0.016     0.603   0.256963E-21
     0.016     0.619   0.272521E-22
     0.016     0.635   0.274519E-23
     0.016     0.651   0.262544E-24
     0.016     0.667   0.238275E-25
     0.016     0.683   0.205094E-26
     0.016     0.698   0.167320E-27
     0.016     0.714   0.129285E-28
     0.016     0.730   0.945364E-30
     0.016     0.746   0.653586E-31
     0.016     0.762   0.426791E-32
     0.016     0.778   0.262930E-33
     0.016     0.794   0.152625E-34
     0.016     0.810   0.833590E-36
     0.016     0.825   0.427695E-37
     0.016     0.841   0.205780E-38
     0.016     0.857   0.926610E-40
     0.016     0.873   0.389629E-41
     0.016     0.889   0.152609E-42
     0.016     0.905   0.555210E-44
     0.016     0.921   0.187019E-45
     0.016     0.937   0.581135E-47
     0.016     0.952   0.165882E-48
     0.016     0.968   0.432850E-50
     0.016     0.984   0.102620E-51
     0.016     1.000    0.00000    
     0.032     0.000   0.995678E-01
     0.032     0.016   0.787183E-01
     0.032     0.032   0.594082E-01
     0.032     0.048   0.426690E-01
     0.032     0.063   0.290952E-01
     0.032     0.079   0.188002E-01
     0.032     0.095   0.114956E-01
     0.032     0.111   0.664526E-02
     0.032     0.127   0.362931E-02
     0.032     0.143   0.187203E-02
     0.032     0.159   0.911857E-03
     0.032     0.175   0.419455E-03
     0.032     0.190   0.182252E-03
     0.032     0.206   0.748196E-04
     0.032     0.222   0.290321E-04
     0.032     0.238   0.106524E-04
     0.032     0.254   0.369762E-05
     0.032     0.270   0.121483E-05
     0.032     0.286   0.377956E-06
     0.032     0.302   0.111407E-06
     0.032     0.317   0.311269E-07
     0.032     0.333   0.824735E-08
     0.032     0.349   0.207318E-08
     0.032     0.365   0.494631E-09
     0.032     0.381   0.112051E-09
     0.032     0.397   0.241093E-10
     0.032     0.413   0.492868E-11
     0.032     0.429   0.957564E-12
     0.032     0.444   0.176847E-12
     0.032     0.460   0.310532E-13
     0.032     0.476   0.518509E-14
     0.032     0.492   0.823370E-15
     0.032     0.508   0.124351E-15
     0.032     0.524   0.178617E-16
     0.032     0.540   0.244009E-17
     0.032     0.556   0.317000E-18
     0.032     0.571   0.391587E-19
     0.032     0.587   0.459865E-20
     0.032     0.603   0.513287E-21
     0.032     0.619   0.544365E-22
     0.032     0.635   0.548355E-23
     0.032     0.651   0.524436E-24
     0.032     0.667   0.475957E-25
     0.032     0.683   0.409678E-26
     0.032     0.698   0.334224E-27
     0.032     0.714   0.258249E-28
     0.032     0.730   0.188838E-29
     0.032     0.746   0.130555E-30
     0.032     0.762   0.852521E-32
     0.032     0.778   0.525207E-33
     0.032     0.794   0.304870E-34
     0.032     0.810   0.166511E-35
     0.032     0.825   0.854328E-37
     0.032     0.841   0.411048E-38
     0.032     0.857   0.185092E-39
     0.032     0.873   0.778290E-41
     0.032     0.889   0.304839E-42
     0.032     0.905   0.110904E-43
     0.032     0.921   0.373574E-45
     0.032     0.937   0.116083E-46
     0.032     0.952   0.331353E-48
     0.032     0.968   0.864624E-50
     0.032     0.984   0.204985E-51
     0.032     1.000    0.00000    
     0.048     0.000   0.149042    
     0.048     0.016   0.117833    
     0.048     0.032   0.889277E-01
     0.048     0.048   0.638708E-01
     0.048     0.063   0.435523E-01
     0.048     0.079   0.281418E-01
     0.048     0.095   0.172077E-01
     0.048     0.111   0.994724E-02
     0.048     0.127   0.543268E-02
     0.048     0.143   0.280223E-02
     0.048     0.159   0.136495E-02
     0.048     0.175   0.627879E-03
     0.048     0.190   0.272811E-03
     0.048     0.206   0.111997E-03
     0.048     0.222   0.434579E-04
     0.048     0.238   0.159454E-04
     0.048     0.254   0.553493E-05
     0.048     0.270   0.181847E-05
     0.048     0.286   0.565759E-06
     0.048     0.302   0.166764E-06
     0.048     0.317   0.465937E-07
     0.048     0.333   0.123454E-07
     0.048     0.349   0.310332E-08
     0.048     0.365   0.740408E-09
     0.048     0.381   0.167727E-09
     0.048     0.397   0.360891E-10
     0.048     0.413   0.737770E-11
     0.048     0.429   0.143337E-11
     0.048     0.444   0.264721E-12
     0.048     0.460   0.464833E-13
     0.048     0.476   0.776152E-14
     0.048     0.492   0.123250E-14
     0.048     0.508   0.186140E-15
     0.048     0.524   0.267371E-16
     0.048     0.540   0.365255E-17
     0.048     0.556   0.474515E-18
     0.048     0.571   0.586163E-19
     0.048     0.587   0.688367E-20
     0.048     0.603   0.768335E-21
     0.048     0.619   0.814855E-22
     0.048     0.635   0.820828E-23
     0.048     0.651   0.785023E-24
     0.048     0.667   0.712456E-25
     0.048     0.683   0.613243E-26
     0.048     0.698   0.500297E-27
     0.048     0.714   0.386570E-28
     0.048     0.730   0.282670E-29
     0.048     0.746   0.195426E-30
     0.048     0.762   0.127613E-31
     0.048     0.778   0.786177E-33
     0.048     0.794   0.456358E-34
     0.048     0.810   0.249249E-35
     0.048     0.825   0.127884E-36
     0.048     0.841   0.615294E-38
     0.048     0.857   0.277062E-39
     0.048     0.873   0.116502E-40
     0.048     0.889   0.456311E-42
     0.048     0.905   0.166011E-43
     0.048     0.921   0.559199E-45
     0.048     0.937   0.173763E-46
     0.048     0.952   0.495999E-48
     0.048     0.968   0.129425E-49
     0.048     0.984   0.306840E-51
     0.048     1.000    0.00000    
     0.063     0.000   0.198146    
     0.063     0.016   0.156654    
     0.063     0.032   0.118226    
     0.063     0.048   0.849139E-01
     0.063     0.063   0.579011E-01
     0.063     0.079   0.374135E-01
     0.063     0.095   0.228770E-01
     0.063     0.111   0.132245E-01
     0.063     0.127   0.722254E-02
     0.063     0.143   0.372546E-02
     0.063     0.159   0.181465E-02
     0.063     0.175   0.834741E-03
     0.063     0.190   0.362693E-03
     0.063     0.206   0.148896E-03
     0.063     0.222   0.577756E-04
     0.063     0.238   0.211989E-04
     0.063     0.254   0.735848E-05
     0.063     0.270   0.241759E-05
     0.063     0.286   0.752156E-06
     0.063     0.302   0.221707E-06
     0.063     0.317   0.619445E-07
     0.063     0.333   0.164127E-07
     0.063     0.349   0.412575E-08
     0.063     0.365   0.984345E-09
     0.063     0.381   0.222987E-09
     0.063     0.397   0.479791E-10
     0.063     0.413   0.980837E-11
     0.063     0.429   0.190561E-11
     0.063     0.444   0.351937E-12
     0.063     0.460   0.617978E-13
     0.063     0.476   0.103187E-13
     0.063     0.492   0.163856E-14
     0.063     0.508   0.247466E-15
     0.063     0.524   0.355459E-16
     0.063     0.540   0.485593E-17
     0.063     0.556   0.630850E-18
     0.063     0.571   0.779282E-19
     0.063     0.587   0.915159E-20
     0.063     0.603   0.102147E-20
     0.063     0.619   0.108332E-21
     0.063     0.635   0.109126E-22
     0.063     0.651   0.104366E-23
     0.063     0.667   0.947183E-25
     0.063     0.683   0.815284E-26
     0.063     0.698   0.665126E-27
     0.063     0.714   0.513931E-28
     0.063     0.730   0.375799E-29
     0.063     0.746   0.259812E-30
     0.063     0.762   0.169657E-31
     0.063     0.778   0.104519E-32
     0.063     0.794   0.606710E-34
     0.063     0.810   0.331367E-35
     0.063     0.825   0.170016E-36
     0.063     0.841   0.818011E-38
     0.063     0.857   0.368344E-39
     0.063     0.873   0.154885E-40
     0.063     0.889   0.606649E-42
     0.063     0.905   0.220706E-43
     0.063     0.921   0.743434E-45
     0.063     0.937   0.231011E-46
     0.063     0.952   0.659412E-48
     0.063     0.968   0.172065E-49
     0.063     0.984   0.407932E-51
     0.063     1.000    0.00000    
     0.079     0.000   0.246757    
     0.079     0.016   0.195086    
     0.079     0.032   0.147230    
     0.079     0.048   0.105746    
     0.079     0.063   0.721060E-01
     0.079     0.079   0.465921E-01
     0.079     0.095   0.284895E-01
     0.079     0.111   0.164688E-01
     0.079     0.127   0.899445E-02
     0.079     0.143   0.463943E-02
     0.079     0.159   0.225984E-02
     0.079     0.175   0.103953E-02
     0.079     0.190   0.451672E-03
     0.079     0.206   0.185424E-03
     0.079     0.222   0.719497E-04
     0.079     0.238   0.263996E-04
     0.079     0.254   0.916374E-05
     0.079     0.270   0.301069E-05
     0.079     0.286   0.936683E-06
     0.079     0.302   0.276098E-06
     0.079     0.317   0.771414E-07
     0.079     0.333   0.204393E-07
     0.079     0.349   0.513792E-08
     0.079     0.365   0.122584E-08
     0.079     0.381   0.277693E-09
     0.079     0.397   0.597498E-10
     0.079     0.413   0.122147E-10
     0.079     0.429   0.237312E-11
     0.079     0.444   0.438278E-12
     0.079     0.460   0.769587E-13
     0.079     0.476   0.128501E-13
     0.079     0.492   0.204054E-14
     0.079     0.508   0.308176E-15
     0.079     0.524   0.442664E-16
     0.079     0.540   0.604723E-17
     0.079     0.556   0.785617E-18
     0.079     0.571   0.970463E-19
     0.079     0.587   0.113967E-19
     0.079     0.603   0.127207E-20
     0.079     0.619   0.134909E-21
     0.079     0.635   0.135898E-22
     0.079     0.651   0.129970E-23
     0.079     0.667   0.117956E-24
     0.079     0.683   0.101530E-25
     0.079     0.698   0.828302E-27
     0.079     0.714   0.640013E-28
     0.079     0.730   0.467994E-29
     0.079     0.746   0.323552E-30
     0.079     0.762   0.211279E-31
     0.079     0.778   0.130161E-32
     0.079     0.794   0.755555E-34
     0.079     0.810   0.412661E-35
     0.079     0.825   0.211727E-36
     0.079     0.841   0.101869E-37
     0.079     0.857   0.458710E-39
     0.079     0.873   0.192882E-40
     0.079     0.889   0.755478E-42
     0.079     0.905   0.274851E-43
     0.079     0.921   0.925821E-45
     0.079     0.937   0.287686E-46
     0.079     0.952   0.821186E-48
     0.079     0.968   0.214278E-49
     0.079     0.984   0.508010E-51
     0.079     1.000    0.00000    
     0.095     0.000   0.294755    
     0.095     0.016   0.233033    
     0.095     0.032   0.175869    
     0.095     0.048   0.126315    
     0.095     0.063   0.861317E-01
     0.095     0.079   0.556549E-01
     0.095     0.095   0.340311E-01
     0.095     0.111   0.196723E-01
     0.095     0.127   0.107440E-01
     0.095     0.143   0.554186E-02
     0.095     0.159   0.269941E-02
     0.095     0.175   0.124173E-02
     0.095     0.190   0.539529E-03
     0.095     0.206   0.221492E-03
     0.095     0.222   0.859450E-04
     0.095     0.238   0.315347E-04
     0.095     0.254   0.109462E-04
     0.095     0.270   0.359632E-05
     0.095     0.286   0.111888E-05
     0.095     0.302   0.329803E-06
     0.095     0.317   0.921465E-07
     0.095     0.333   0.244150E-07
     0.095     0.349   0.613732E-08
     0.095     0.365   0.146428E-08
     0.095     0.381   0.331708E-09
     0.095     0.397   0.713720E-10
     0.095     0.413   0.145906E-10
     0.095     0.429   0.283472E-11
     0.095     0.444   0.523529E-12
     0.095     0.460   0.919282E-13
     0.095     0.476   0.153497E-13
     0.095     0.492   0.243746E-14
     0.095     0.508   0.368121E-15
     0.095     0.524   0.528768E-16
     0.095     0.540   0.722350E-17
     0.095     0.556   0.938430E-18
     0.095     0.571   0.115923E-18
     0.095     0.587   0.136136E-19
     0.095     0.603   0.151951E-20
     0.095     0.619   0.161151E-21
     0.095     0.635   0.162332E-22
     0.095     0.651   0.155251E-23
     0.095     0.667   0.140900E-24
     0.095     0.683   0.121279E-25
     0.095     0.698   0.989418E-27
     0.095     0.714   0.764505E-28
     0.095     0.730   0.559025E-29
     0.095     0.746   0.386487E-30
     0.095     0.762   0.252376E-31
     0.095     0.778   0.155479E-32
     0.095     0.794   0.902521E-34
     0.095     0.810   0.492929E-35
     0.095     0.825   0.252910E-36
     0.095     0.841   0.121684E-37
     0.095     0.857   0.547935E-39
     0.095     0.873   0.230401E-40
     0.095     0.889   0.902429E-42
     0.095     0.905   0.328314E-43
     0.095     0.921   0.110591E-44
     0.095     0.937   0.343644E-46
     0.095     0.952   0.980918E-48
     0.095     0.968   0.255958E-49
     0.095     0.984   0.606825E-51
     0.095     1.000    0.00000    
     0.111     0.000   0.342020    
     0.111     0.016   0.270401    
     0.111     0.032   0.204070    
     0.111     0.048   0.146570    
     0.111     0.063   0.999432E-01
     0.111     0.079   0.645794E-01
     0.111     0.095   0.394881E-01
     0.111     0.111   0.228268E-01
     0.111     0.127   0.124668E-01
     0.111     0.143   0.643052E-02
     0.111     0.159   0.313227E-02
     0.111     0.175   0.144085E-02
     0.111     0.190   0.626044E-03
     0.111     0.206   0.257009E-03
     0.111     0.222   0.997265E-04
     0.111     0.238   0.365914E-04
     0.111     0.254   0.127015E-04
     0.111     0.270   0.417300E-05
     0.111     0.286   0.129830E-05
     0.111     0.302   0.382688E-06
     0.111     0.317   0.106922E-06
     0.111     0.333   0.283300E-07
     0.111     0.349   0.712146E-08
     0.111     0.365   0.169908E-08
     0.111     0.381   0.384899E-09
     0.111     0.397   0.828167E-10
     0.111     0.413   0.169302E-10
     0.111     0.429   0.328928E-11
     0.111     0.444   0.607479E-12
     0.111     0.460   0.106669E-12
     0.111     0.476   0.178110E-13
     0.111     0.492   0.282831E-14
     0.111     0.508   0.427150E-15
     0.111     0.524   0.613558E-16
     0.111     0.540   0.838182E-17
     0.111     0.556   0.108891E-17
     0.111     0.571   0.134512E-18
     0.111     0.587   0.157966E-19
     0.111     0.603   0.176317E-20
     0.111     0.619   0.186992E-21
     0.111     0.635   0.188362E-22
     0.111     0.651   0.180146E-23
     0.111     0.667   0.163493E-24
     0.111     0.683   0.140726E-25
     0.111     0.698   0.114807E-26
     0.111     0.714   0.887096E-28
     0.111     0.730   0.648666E-29
     0.111     0.746   0.448462E-30
     0.111     0.762   0.292845E-31
     0.111     0.778   0.180411E-32
     0.111     0.794   0.104724E-33
     0.111     0.810   0.571972E-35
     0.111     0.825   0.293465E-36
     0.111     0.841   0.141197E-37
     0.111     0.857   0.635798E-39
     0.111     0.873   0.267346E-40
     0.111     0.889   0.104714E-41
     0.111     0.905   0.380960E-43
     0.111     0.921   0.128324E-44
     0.111     0.937   0.398749E-46
     0.111     0.952   0.113821E-47
     0.111     0.968   0.297002E-49
     0.111     0.984   0.704132E-51
     0.111     1.000    0.00000    
     0.127     0.000   0.388435    
     0.127     0.016   0.307096    
     0.127     0.032   0.231764    
     0.127     0.048   0.166460    
     0.127     0.063   0.113506    
     0.127     0.079   0.733433E-01
     0.127     0.095   0.448469E-01
     0.127     0.111   0.259245E-01
     0.127     0.127   0.141587E-01
     0.127     0.143   0.730319E-02
     0.127     0.159   0.355734E-02
     0.127     0.175   0.163638E-02
     0.127     0.190   0.711002E-03
     0.127     0.206   0.291887E-03
     0.127     0.222   0.113260E-03
     0.127     0.238   0.415571E-04
     0.127     0.254   0.144252E-04
     0.127     0.270   0.473930E-05
     0.127     0.286   0.147449E-05
     0.127     0.302   0.434622E-06
     0.127     0.317   0.121433E-06
     0.127     0.333   0.321746E-07
     0.127     0.349   0.808789E-08
     0.127     0.365   0.192966E-08
     0.127     0.381   0.437132E-09
     0.127     0.397   0.940555E-10
     0.127     0.413   0.192278E-10
     0.127     0.429   0.373566E-11
     0.127     0.444   0.689918E-12
     0.127     0.460   0.121145E-12
     0.127     0.476   0.202281E-13
     0.127     0.492   0.321214E-14
     0.127     0.508   0.485118E-15
     0.127     0.524   0.696823E-16
     0.127     0.540   0.951929E-17
     0.127     0.556   0.123668E-17
     0.127     0.571   0.152766E-18
     0.127     0.587   0.179403E-19
     0.127     0.603   0.200244E-20
     0.127     0.619   0.212368E-21
     0.127     0.635   0.213925E-22
     0.127     0.651   0.204593E-23
     0.127     0.667   0.185681E-24
     0.127     0.683   0.159824E-25
     0.127     0.698   0.130388E-26
     0.127     0.714   0.100748E-27
     0.127     0.730   0.736695E-29
     0.127     0.746   0.509321E-30
     0.127     0.762   0.332586E-31
     0.127     0.778   0.204894E-32
     0.127     0.794   0.118936E-33
     0.127     0.810   0.649593E-35
     0.127     0.825   0.333291E-36
     0.127     0.841   0.160358E-37
     0.127     0.857   0.722081E-39
     0.127     0.873   0.303627E-40
     0.127     0.889   0.118924E-41
     0.127     0.905   0.432659E-43
     0.127     0.921   0.145739E-44
     0.127     0.937   0.452862E-46
     0.127     0.952   0.129268E-47
     0.127     0.968   0.337308E-49
     0.127     0.984   0.799688E-51
     0.127     1.000    0.00000    
     0.143     0.000   0.433884    
     0.143     0.016   0.343028    
     0.143     0.032   0.258881    
     0.143     0.048   0.185937    
     0.143     0.063   0.126787    
     0.143     0.079   0.819249E-01
     0.143     0.095   0.500942E-01
     0.143     0.111   0.289579E-01
     0.143     0.127   0.158153E-01
     0.143     0.143   0.815770E-02
     0.143     0.159   0.397357E-02
     0.143     0.175   0.182785E-02
     0.143     0.190   0.794194E-03
     0.143     0.206   0.326039E-03
     0.143     0.222   0.126512E-03
     0.143     0.238   0.464195E-04
     0.143     0.254   0.161130E-04
     0.143     0.270   0.529383E-05
     0.143     0.286   0.164701E-05
     0.143     0.302   0.485475E-06
     0.143     0.317   0.135641E-06
     0.143     0.333   0.359392E-07
     0.143     0.349   0.903422E-08
     0.143     0.365   0.215544E-08
     0.143     0.381   0.488279E-09
     0.143     0.397   0.105061E-09
     0.143     0.413   0.214776E-10
     0.143     0.429   0.417275E-11
     0.143     0.444   0.770642E-12
     0.143     0.460   0.135320E-12
     0.143     0.476   0.225949E-13
     0.143     0.492   0.358797E-14
     0.143     0.508   0.541879E-15
     0.143     0.524   0.778355E-16
     0.143     0.540   0.106331E-16
     0.143     0.556   0.138138E-17
     0.143     0.571   0.170641E-18
     0.143     0.587   0.200394E-19
     0.143     0.603   0.223674E-20
     0.143     0.619   0.237216E-21
     0.143     0.635   0.238955E-22
     0.143     0.651   0.228532E-23
     0.143     0.667   0.207406E-24
     0.143     0.683   0.178524E-25
     0.143     0.698   0.145644E-26
     0.143     0.714   0.112536E-27
     0.143     0.730   0.822893E-29
     0.143     0.746   0.568914E-30
     0.143     0.762   0.371501E-31
     0.143     0.778   0.228868E-32
     0.143     0.794   0.132852E-33
     0.143     0.810   0.725599E-35
     0.143     0.825   0.372288E-36
     0.143     0.841   0.179121E-37
     0.143     0.857   0.806568E-39
     0.143     0.873   0.339153E-40
     0.143     0.889   0.132839E-41
     0.143     0.905   0.483283E-43
     0.143     0.921   0.162791E-44
     0.143     0.937   0.505849E-46
     0.143     0.952   0.144392E-47
     0.143     0.968   0.376774E-49
     0.143     0.984   0.893255E-51
     0.143     1.000    0.00000    
     0.159     0.000   0.478254    
     0.159     0.016   0.378107    
     0.159     0.032   0.285355    
     0.159     0.048   0.204952    
     0.159     0.063   0.139753    
     0.159     0.079   0.903027E-01
     0.159     0.095   0.552170E-01
     0.159     0.111   0.319192E-01
     0.159     0.127   0.174326E-01
     0.159     0.143   0.899193E-02
     0.159     0.159   0.437992E-02
     0.159     0.175   0.201477E-02
     0.159     0.190   0.875410E-03
     0.159     0.206   0.359381E-03
     0.159     0.222   0.139450E-03
     0.159     0.238   0.511665E-04
     0.159     0.254   0.177608E-04
     0.159     0.270   0.583519E-05
     0.159     0.286   0.181544E-05
     0.159     0.302   0.535121E-06
     0.159     0.317   0.149512E-06
     0.159     0.333   0.396145E-07
     0.159     0.349   0.995808E-08
     0.159     0.365   0.237586E-08
     0.159     0.381   0.538212E-09
     0.159     0.397   0.115804E-09
     0.159     0.413   0.236739E-10
     0.159     0.429   0.459946E-11
     0.159     0.444   0.849451E-12
     0.159     0.460   0.149158E-12
     0.159     0.476   0.249055E-13
     0.159     0.492   0.395489E-14
     0.159     0.508   0.597293E-15
     0.159     0.524   0.857951E-16
     0.159     0.540   0.117205E-16
     0.159     0.556   0.152265E-17
     0.159     0.571   0.188091E-18
     0.159     0.587   0.220887E-19
     0.159     0.603   0.246547E-20
     0.159     0.619   0.261475E-21
     0.159     0.635   0.263391E-22
     0.159     0.651   0.251902E-23
     0.159     0.667   0.228616E-24
     0.159     0.683   0.196780E-25
     0.159     0.698   0.160538E-26
     0.159     0.714   0.124044E-27
     0.159     0.730   0.907044E-29
     0.159     0.746   0.627093E-30
     0.159     0.762   0.409491E-31
     0.159     0.778   0.252272E-32
     0.159     0.794   0.146438E-33
     0.159     0.810   0.799801E-35
     0.159     0.825   0.410359E-36
     0.159     0.841   0.197439E-37
     0.159     0.857   0.889050E-39
     0.159     0.873   0.373836E-40
     0.159     0.889   0.146423E-41
     0.159     0.905   0.532705E-43
     0.159     0.921   0.179438E-44
     0.159     0.937   0.557579E-46
     0.159     0.952   0.159158E-47
     0.159     0.968   0.415304E-49
     0.159     0.984   0.984602E-51
     0.159     1.000    0.00000    
     0.175     0.000   0.521435    
     0.175     0.016   0.412247    
     0.175     0.032   0.311120    
     0.175     0.048   0.223457    
     0.175     0.063   0.152371    
     0.175     0.079   0.984561E-01
     0.175     0.095   0.602025E-01
     0.175     0.111   0.348011E-01
     0.175     0.127   0.190066E-01
     0.175     0.143   0.980381E-02
     0.175     0.159   0.477538E-02
     0.175     0.175   0.219668E-02
     0.175     0.190   0.954450E-03
     0.175     0.206   0.391829E-03
     0.175     0.222   0.152041E-03
     0.175     0.238   0.557863E-04
     0.175     0.254   0.193644E-04
     0.175     0.270   0.636205E-05
     0.175     0.286   0.197935E-05
     0.175     0.302   0.583436E-06
     0.175     0.317   0.163011E-06
     0.175     0.333   0.431912E-07
     0.175     0.349   0.108572E-07
     0.175     0.365   0.259037E-08
     0.175     0.381   0.586807E-09
     0.175     0.397   0.126260E-09
     0.175     0.413   0.258114E-10
     0.175     0.429   0.501475E-11
     0.175     0.444   0.926147E-12
     0.175     0.460   0.162625E-12
     0.175     0.476   0.271542E-13
     0.175     0.492   0.431197E-14
     0.175     0.508   0.651223E-15
     0.175     0.524   0.935415E-16
     0.175     0.540   0.127787E-16
     0.175     0.556   0.166013E-17
     0.175     0.571   0.205073E-18
     0.175     0.587   0.240830E-19
     0.175     0.603   0.268808E-20
     0.175     0.619   0.285083E-21
     0.175     0.635   0.287173E-22
     0.175     0.651   0.274646E-23
     0.175     0.667   0.249258E-24
     0.175     0.683   0.214548E-25
     0.175     0.698   0.175033E-26
     0.175     0.714   0.135244E-27
     0.175     0.730   0.988940E-29
     0.175     0.746   0.683713E-30
     0.175     0.762   0.446464E-31
     0.175     0.778   0.275050E-32
     0.175     0.794   0.159660E-33
     0.175     0.810   0.872014E-35
     0.175     0.825   0.447410E-36
     0.175     0.841   0.215265E-37
     0.175     0.857   0.969322E-39
     0.175     0.873   0.407589E-40
     0.175     0.889   0.159644E-41
     0.175     0.905   0.580802E-43
     0.175     0.921   0.195640E-44
     0.175     0.937   0.607922E-46
     0.175     0.952   0.173529E-47
     0.175     0.968   0.452802E-49
     0.175     0.984   0.107350E-50
     0.175     1.000    0.00000    
     0.190     0.000   0.563320    
     0.190     0.016   0.445361    
     0.190     0.032   0.336111    
     0.190     0.048   0.241406    
     0.190     0.063   0.164610    
     0.190     0.079   0.106365    
     0.190     0.095   0.650383E-01
     0.190     0.111   0.375966E-01
     0.190     0.127   0.205333E-01
     0.190     0.143   0.105913E-01
     0.190     0.159   0.515897E-02
     0.190     0.175   0.237313E-02
     0.190     0.190   0.103112E-02
     0.190     0.206   0.423303E-03
     0.190     0.222   0.164253E-03
     0.190     0.238   0.602674E-04
     0.190     0.254   0.209198E-04
     0.190     0.270   0.687308E-05
     0.190     0.286   0.213834E-05
     0.190     0.302   0.630302E-06
     0.190     0.317   0.176105E-06
     0.190     0.333   0.466606E-07
     0.190     0.349   0.117293E-07
     0.190     0.365   0.279845E-08
     0.190     0.381   0.633943E-09
     0.190     0.397   0.136402E-09
     0.190     0.413   0.278847E-10
     0.190     0.429   0.541756E-11
     0.190     0.444   0.100054E-11
     0.190     0.460   0.175688E-12
     0.190     0.476   0.293354E-13
     0.190     0.492   0.465834E-14
     0.190     0.508   0.703533E-15
     0.190     0.524   0.101055E-15
     0.190     0.540   0.138052E-16
     0.190     0.556   0.179348E-17
     0.190     0.571   0.221546E-18
     0.190     0.587   0.260175E-19
     0.190     0.603   0.290400E-20
     0.190     0.619   0.307982E-21
     0.190     0.635   0.310240E-22
     0.190     0.651   0.296707E-23
     0.190     0.667   0.269280E-24
     0.190     0.683   0.231781E-25
     0.190     0.698   0.189092E-26
     0.190     0.714   0.146108E-27
     0.190     0.730   0.106838E-28
     0.190     0.746   0.738633E-30
     0.190     0.762   0.482327E-31
     0.190     0.778   0.297144E-32
     0.190     0.794   0.172485E-33
     0.190     0.810   0.942060E-35
     0.190     0.825   0.483349E-36
     0.190     0.841   0.232557E-37
     0.190     0.857   0.104718E-38
     0.190     0.873   0.440329E-40
     0.190     0.889   0.172467E-41
     0.190     0.905   0.627456E-43
     0.190     0.921   0.211355E-44
     0.190     0.937   0.656755E-46
     0.190     0.952   0.187468E-47
     0.190     0.968   0.489174E-49
     0.190     0.984   0.115973E-50