Title="Temperature Data"
Variables="X","Y","T"
 
Zone I=   128, J=   128, F=POINT
     0.000     0.000    0.00000    
     0.000     0.008    0.00000    
     0.000     0.016    0.00000    
     0.000     0.024    0.00000    
     0.000     0.031    0.00000    
     0.000     0.039    0.00000    
     0.000     0.047    0.00000    
     0.000     0.055    0.00000    
     0.000     0.063    0.00000    
     0.000     0.071    0.00000    
     0.000     0.079    0.00000    
     0.000     0.087    0.00000    
     0.000     0.094    0.00000    
     0.000     0.102    0.00000    
     0.000     0.110    0.00000    
     0.000     0.118    0.00000    
     0.000     0.126    0.00000    
     0.000     0.134    0.00000    
     0.000     0.142    0.00000    
     0.000     0.150    0.00000    
     0.000     0.157    0.00000    
     0.000     0.165    0.00000    
     0.000     0.173    0.00000    
     0.000     0.181    0.00000    
     0.000     0.189    0.00000    
     0.000     0.197    0.00000    
     0.000     0.205    0.00000    
     0.000     0.213    0.00000    
     0.000     0.220    0.00000    
     0.000     0.228    0.00000    
     0.000     0.236    0.00000    
     0.000     0.244    0.00000    
     0.000     0.252    0.00000    
     0.000     0.260    0.00000    
     0.000     0.268    0.00000    
     0.000     0.276    0.00000    
     0.000     0.283    0.00000    
     0.000     0.291    0.00000    
     0.000     0.299    0.00000    
     0.000     0.307    0.00000    
     0.000     0.315    0.00000    
     0.000     0.323    0.00000    
     0.000     0.331    0.00000    
     0.000     0.339    0.00000    
     0.000     0.346    0.00000    
     0.000     0.354    0.00000    
     0.000     0.362    0.00000    
     0.000     0.370    0.00000    
     0.000     0.378    0.00000    
     0.000     0.386    0.00000    
     0.000     0.394    0.00000    
     0.000     0.402    0.00000    
     0.000     0.409    0.00000    
     0.000     0.417    0.00000    
     0.000     0.425    0.00000    
     0.000     0.433    0.00000    
     0.000     0.441    0.00000    
     0.000     0.449    0.00000    
     0.000     0.457    0.00000    
     0.000     0.465    0.00000    
     0.000     0.472    0.00000    
     0.000     0.480    0.00000    
     0.000     0.488    0.00000    
     0.000     0.496    0.00000    
     0.000     0.504    0.00000    
     0.000     0.512    0.00000    
     0.000     0.520    0.00000    
     0.000     0.528    0.00000    
     0.000     0.535    0.00000    
     0.000     0.543    0.00000    
     0.000     0.551    0.00000    
     0.000     0.559    0.00000    
     0.000     0.567    0.00000    
     0.000     0.575    0.00000    
     0.000     0.583    0.00000    
     0.000     0.591    0.00000    
     0.000     0.598    0.00000    
     0.000     0.606    0.00000    
     0.000     0.614    0.00000    
     0.000     0.622    0.00000    
     0.000     0.630    0.00000    
     0.000     0.638    0.00000    
     0.000     0.646    0.00000    
     0.000     0.654    0.00000    
     0.000     0.661    0.00000    
     0.000     0.669    0.00000    
     0.000     0.677    0.00000    
     0.000     0.685    0.00000    
     0.000     0.693    0.00000    
     0.000     0.701    0.00000    
     0.000     0.709    0.00000    
     0.000     0.717    0.00000    
     0.000     0.724    0.00000    
     0.000     0.732    0.00000    
     0.000     0.740    0.00000    
     0.000     0.748    0.00000    
     0.000     0.756    0.00000    
     0.000     0.764    0.00000    
     0.000     0.772    0.00000    
     0.000     0.780    0.00000    
     0.000     0.787    0.00000    
     0.000     0.795    0.00000    
     0.000     0.803    0.00000    
     0.000     0.811    0.00000    
     0.000     0.819    0.00000    
     0.000     0.827    0.00000    
     0.000     0.835    0.00000    
     0.000     0.843    0.00000    
     0.000     0.850    0.00000    
     0.000     0.858    0.00000    
     0.000     0.866    0.00000    
     0.000     0.874    0.00000    
     0.000     0.882    0.00000    
     0.000     0.890    0.00000    
     0.000     0.898    0.00000    
     0.000     0.906    0.00000    
     0.000     0.913    0.00000    
     0.000     0.921    0.00000    
     0.000     0.929    0.00000    
     0.000     0.937    0.00000    
     0.000     0.945    0.00000    
     0.000     0.953    0.00000    
     0.000     0.961    0.00000    
     0.000     0.969    0.00000    
     0.000     0.976    0.00000    
     0.000     0.984    0.00000    
     0.000     0.992    0.00000    
     0.000     1.000    0.00000    
     0.008     0.000   0.247344E-01
     0.008     0.008   0.241255E-01
     0.008     0.016   0.235314E-01
     0.008     0.024   0.229517E-01
     0.008     0.031   0.223861E-01
     0.008     0.039   0.218341E-01
     0.008     0.047   0.212955E-01
     0.008     0.055   0.207700E-01
     0.008     0.063   0.202572E-01
     0.008     0.071   0.197568E-01
     0.008     0.079   0.192685E-01
     0.008     0.087   0.187921E-01
     0.008     0.094   0.183272E-01
     0.008     0.102   0.178735E-01
     0.008     0.110   0.174308E-01
     0.008     0.118   0.169988E-01
     0.008     0.126   0.165772E-01
     0.008     0.134   0.161658E-01
     0.008     0.142   0.157644E-01
     0.008     0.150   0.153727E-01
     0.008     0.157   0.149904E-01
     0.008     0.165   0.146173E-01
     0.008     0.173   0.142533E-01
     0.008     0.181   0.138980E-01
     0.008     0.189   0.135513E-01
     0.008     0.197   0.132129E-01
     0.008     0.205   0.128827E-01
     0.008     0.213   0.125604E-01
     0.008     0.220   0.122459E-01
     0.008     0.228   0.119390E-01
     0.008     0.236   0.116394E-01
     0.008     0.244   0.113471E-01
     0.008     0.252   0.110618E-01
     0.008     0.260   0.107833E-01
     0.008     0.268   0.105115E-01
     0.008     0.276   0.102461E-01
     0.008     0.283   0.998722E-02
     0.008     0.291   0.973447E-02
     0.008     0.299   0.948779E-02
     0.008     0.307   0.924698E-02
     0.008     0.315   0.901194E-02
     0.008     0.323   0.878249E-02
     0.008     0.331   0.855854E-02
     0.008     0.339   0.833989E-02
     0.008     0.346   0.812647E-02
     0.008     0.354   0.791809E-02
     0.008     0.362   0.771469E-02
     0.008     0.370   0.751608E-02
     0.008     0.378   0.732221E-02
     0.008     0.386   0.713289E-02
     0.008     0.394   0.694806E-02
     0.008     0.402   0.676757E-02
     0.008     0.409   0.659135E-02
     0.008     0.417   0.641925E-02
     0.008     0.425   0.625121E-02
     0.008     0.433   0.608708E-02
     0.008     0.441   0.592681E-02
     0.008     0.449   0.577025E-02
     0.008     0.457   0.561736E-02
     0.008     0.465   0.546799E-02
     0.008     0.472   0.532210E-02
     0.008     0.480   0.517955E-02
     0.008     0.488   0.504032E-02
     0.008     0.496   0.490425E-02
     0.008     0.504   0.477132E-02
     0.008     0.512   0.464140E-02
     0.008     0.520   0.451446E-02
     0.008     0.528   0.439036E-02
     0.008     0.535   0.426909E-02
     0.008     0.543   0.415052E-02
     0.008     0.551   0.403462E-02
     0.008     0.559   0.392128E-02
     0.008     0.567   0.381047E-02
     0.008     0.575   0.370208E-02
     0.008     0.583   0.359609E-02
     0.008     0.591   0.349238E-02
     0.008     0.598   0.339094E-02
     0.008     0.606   0.329166E-02
     0.008     0.614   0.319452E-02
     0.008     0.622   0.309942E-02
     0.008     0.630   0.300634E-02
     0.008     0.638   0.291518E-02
     0.008     0.646   0.282593E-02
     0.008     0.654   0.273849E-02
     0.008     0.661   0.265284E-02
     0.008     0.669   0.256890E-02
     0.008     0.677   0.248664E-02
     0.008     0.685   0.240598E-02
     0.008     0.693   0.232690E-02
     0.008     0.701   0.224932E-02
     0.008     0.709   0.217323E-02
     0.008     0.717   0.209854E-02
     0.008     0.724   0.202523E-02
     0.008     0.732   0.195324E-02
     0.008     0.740   0.188253E-02
     0.008     0.748   0.181305E-02
     0.008     0.756   0.174477E-02
     0.008     0.764   0.167762E-02
     0.008     0.772   0.161159E-02
     0.008     0.780   0.154660E-02
     0.008     0.787   0.148264E-02
     0.008     0.795   0.141965E-02
     0.008     0.803   0.135761E-02
     0.008     0.811   0.129644E-02
     0.008     0.819   0.123615E-02
     0.008     0.827   0.117666E-02
     0.008     0.835   0.111796E-02
     0.008     0.843   0.105999E-02
     0.008     0.850   0.100273E-02
     0.008     0.858   0.946127E-03
     0.008     0.866   0.890160E-03
     0.008     0.874   0.834773E-03
     0.008     0.882   0.779949E-03
     0.008     0.890   0.725634E-03
     0.008     0.898   0.671809E-03
     0.008     0.906   0.618423E-03
     0.008     0.913   0.565456E-03
     0.008     0.921   0.512857E-03
     0.008     0.929   0.460606E-03
     0.008     0.937   0.408656E-03
     0.008     0.945   0.356983E-03
     0.008     0.953   0.305543E-03
     0.008     0.961   0.254310E-03
     0.008     0.969   0.203244E-03
     0.008     0.976   0.152316E-03
     0.008     0.984   0.101487E-03
     0.008     0.992   0.507268E-04
     0.008     1.000    0.00000    
     0.016     0.000   0.494537E-01
     0.016     0.008   0.482363E-01
     0.016     0.016   0.470485E-01
     0.016     0.024   0.458894E-01
     0.016     0.031   0.447584E-01
     0.016     0.039   0.436548E-01
     0.016     0.047   0.425780E-01
     0.016     0.055   0.415273E-01
     0.016     0.063   0.405020E-01
     0.016     0.071   0.395015E-01
     0.016     0.079   0.385253E-01
     0.016     0.087   0.375727E-01
     0.016     0.094   0.366431E-01
     0.016     0.102   0.357360E-01
     0.016     0.110   0.348509E-01
     0.016     0.118   0.339871E-01
     0.016     0.126   0.331443E-01
     0.016     0.134   0.323218E-01
     0.016     0.142   0.315191E-01
     0.016     0.150   0.307359E-01
     0.016     0.157   0.299716E-01
     0.016     0.165   0.292257E-01
     0.016     0.173   0.284978E-01
     0.016     0.181   0.277875E-01
     0.016     0.189   0.270942E-01
     0.016     0.197   0.264177E-01
     0.016     0.205   0.257575E-01
     0.016     0.213   0.251132E-01
     0.016     0.220   0.244844E-01
     0.016     0.228   0.238707E-01
     0.016     0.236   0.232718E-01
     0.016     0.244   0.226872E-01
     0.016     0.252   0.221167E-01
     0.016     0.260   0.215599E-01
     0.016     0.268   0.210165E-01
     0.016     0.276   0.204860E-01
     0.016     0.283   0.199683E-01
     0.016     0.291   0.194630E-01
     0.016     0.299   0.189697E-01
     0.016     0.307   0.184883E-01
     0.016     0.315   0.180184E-01
     0.016     0.323   0.175596E-01
     0.016     0.331   0.171118E-01
     0.016     0.339   0.166747E-01
     0.016     0.346   0.162479E-01
     0.016     0.354   0.158314E-01
     0.016     0.362   0.154246E-01
     0.016     0.370   0.150276E-01
     0.016     0.378   0.146399E-01
     0.016     0.386   0.142614E-01
     0.016     0.394   0.138918E-01
     0.016     0.402   0.135310E-01
     0.016     0.409   0.131786E-01
     0.016     0.417   0.128346E-01
     0.016     0.425   0.124986E-01
     0.016     0.433   0.121705E-01
     0.016     0.441   0.118500E-01
     0.016     0.449   0.115370E-01
     0.016     0.457   0.112312E-01
     0.016     0.465   0.109327E-01
     0.016     0.472   0.106409E-01
     0.016     0.480   0.103560E-01
     0.016     0.488   0.100775E-01
     0.016     0.496   0.980553E-02
     0.016     0.504   0.953970E-02
     0.016     0.512   0.927999E-02
     0.016     0.520   0.902613E-02
     0.016     0.528   0.877807E-02
     0.016     0.535   0.853555E-02
     0.016     0.543   0.829853E-02
     0.016     0.551   0.806675E-02
     0.016     0.559   0.784019E-02
     0.016     0.567   0.761859E-02
     0.016     0.575   0.740192E-02
     0.016     0.583   0.718995E-02
     0.016     0.591   0.698265E-02
     0.016     0.598   0.677979E-02
     0.016     0.606   0.658133E-02
     0.016     0.614   0.638707E-02
     0.016     0.622   0.619697E-02
     0.016     0.630   0.601082E-02
     0.016     0.638   0.582861E-02
     0.016     0.646   0.565012E-02
     0.016     0.654   0.547533E-02
     0.016     0.661   0.530404E-02
     0.016     0.669   0.513624E-02
     0.016     0.677   0.497174E-02
     0.016     0.685   0.481051E-02
     0.016     0.693   0.465236E-02
     0.016     0.701   0.449729E-02
     0.016     0.709   0.434511E-02
     0.016     0.717   0.419581E-02
     0.016     0.724   0.404921E-02
     0.016     0.732   0.390529E-02
     0.016     0.740   0.376390E-02
     0.016     0.748   0.362501E-02
     0.016     0.756   0.348845E-02
     0.016     0.764   0.335423E-02
     0.016     0.772   0.322217E-02
     0.016     0.780   0.309227E-02
     0.016     0.787   0.296436E-02
     0.016     0.795   0.283844E-02
     0.016     0.803   0.271436E-02
     0.016     0.811   0.259211E-02
     0.016     0.819   0.247153E-02
     0.016     0.827   0.235261E-02
     0.016     0.835   0.223523E-02
     0.016     0.843   0.211934E-02
     0.016     0.850   0.200484E-02
     0.016     0.858   0.189169E-02
     0.016     0.866   0.177976E-02
     0.016     0.874   0.166904E-02
     0.016     0.882   0.155941E-02
     0.016     0.890   0.145083E-02
     0.016     0.898   0.134320E-02
     0.016     0.906   0.123648E-02
     0.016     0.913   0.113056E-02
     0.016     0.921   0.102541E-02
     0.016     0.929   0.920925E-03
     0.016     0.937   0.817067E-03
     0.016     0.945   0.713743E-03
     0.016     0.953   0.610903E-03
     0.016     0.961   0.508462E-03
     0.016     0.969   0.406366E-03
     0.016     0.976   0.304536E-03
     0.016     0.984   0.202913E-03
     0.016     0.992   0.101422E-03
     0.016     1.000    0.00000    
     0.024     0.000   0.741428E-01
     0.024     0.008   0.723176E-01
     0.024     0.016   0.705367E-01
     0.024     0.024   0.687990E-01
     0.024     0.031   0.671034E-01
     0.024     0.039   0.654489E-01
     0.024     0.047   0.638345E-01
     0.024     0.055   0.622591E-01
     0.024     0.063   0.607220E-01
     0.024     0.071   0.592221E-01
     0.024     0.079   0.577584E-01
     0.024     0.087   0.563302E-01
     0.024     0.094   0.549366E-01
     0.024     0.102   0.535767E-01
     0.024     0.110   0.522496E-01
     0.024     0.118   0.509547E-01
     0.024     0.126   0.496911E-01
     0.024     0.134   0.484579E-01
     0.024     0.142   0.472546E-01
     0.024     0.150   0.460803E-01
     0.024     0.157   0.449344E-01
     0.024     0.165   0.438162E-01
     0.024     0.173   0.427249E-01
     0.024     0.181   0.416599E-01
     0.024     0.189   0.406206E-01
     0.024     0.197   0.396064E-01
     0.024     0.205   0.386166E-01
     0.024     0.213   0.376506E-01
     0.024     0.220   0.367079E-01
     0.024     0.228   0.357878E-01
     0.024     0.236   0.348899E-01
     0.024     0.244   0.340135E-01
     0.024     0.252   0.331582E-01
     0.024     0.260   0.323234E-01
     0.024     0.268   0.315086E-01
     0.024     0.276   0.307134E-01
     0.024     0.283   0.299372E-01
     0.024     0.291   0.291796E-01
     0.024     0.299   0.284401E-01
     0.024     0.307   0.277183E-01
     0.024     0.315   0.270138E-01
     0.024     0.323   0.263260E-01
     0.024     0.331   0.256547E-01
     0.024     0.339   0.249993E-01
     0.024     0.346   0.243595E-01
     0.024     0.354   0.237349E-01
     0.024     0.362   0.231252E-01
     0.024     0.370   0.225299E-01
     0.024     0.378   0.219487E-01
     0.024     0.386   0.213812E-01
     0.024     0.394   0.208272E-01
     0.024     0.402   0.202862E-01
     0.024     0.409   0.197579E-01
     0.024     0.417   0.192420E-01
     0.024     0.425   0.187383E-01
     0.024     0.433   0.182463E-01
     0.024     0.441   0.177659E-01
     0.024     0.449   0.172966E-01
     0.024     0.457   0.168383E-01
     0.024     0.465   0.163906E-01
     0.024     0.472   0.159533E-01
     0.024     0.480   0.155260E-01
     0.024     0.488   0.151086E-01
     0.024     0.496   0.147008E-01
     0.024     0.504   0.143023E-01
     0.024     0.512   0.139128E-01
     0.024     0.520   0.135323E-01
     0.024     0.528   0.131603E-01
     0.024     0.535   0.127968E-01
     0.024     0.543   0.124414E-01
     0.024     0.551   0.120940E-01
     0.024     0.559   0.117542E-01
     0.024     0.567   0.114221E-01
     0.024     0.575   0.110972E-01
     0.024     0.583   0.107795E-01
     0.024     0.591   0.104686E-01
     0.024     0.598   0.101645E-01
     0.024     0.606   0.986693E-02
     0.024     0.614   0.957575E-02
     0.024     0.622   0.929068E-02
     0.024     0.630   0.901167E-02
     0.024     0.638   0.873842E-02
     0.024     0.646   0.847089E-02
     0.024     0.654   0.820877E-02
     0.024     0.661   0.795204E-02
     0.024     0.669   0.770041E-02
     0.024     0.677   0.745384E-02
     0.024     0.685   0.721205E-02
     0.024     0.693   0.697502E-02
     0.024     0.701   0.674247E-02
     0.024     0.709   0.651438E-02
     0.024     0.717   0.629048E-02
     0.024     0.724   0.607075E-02
     0.024     0.732   0.585493E-02
     0.024     0.740   0.564300E-02
     0.024     0.748   0.543471E-02
     0.024     0.756   0.523004E-02
     0.024     0.764   0.502875E-02
     0.024     0.772   0.483082E-02
     0.024     0.780   0.463601E-02
     0.024     0.787   0.444430E-02
     0.024     0.795   0.425547E-02
     0.024     0.803   0.406949E-02
     0.024     0.811   0.388615E-02
     0.024     0.819   0.370542E-02
     0.024     0.827   0.352710E-02
     0.024     0.835   0.335115E-02
     0.024     0.843   0.317738E-02
     0.024     0.850   0.300574E-02
     0.024     0.858   0.283607E-02
     0.024     0.866   0.266830E-02
     0.024     0.874   0.250227E-02
     0.024     0.882   0.233794E-02
     0.024     0.890   0.217513E-02
     0.024     0.898   0.201378E-02
     0.024     0.906   0.185376E-02
     0.024     0.913   0.169498E-02
     0.024     0.921   0.153732E-02
     0.024     0.929   0.138069E-02
     0.024     0.937   0.122497E-02
     0.024     0.945   0.107007E-02
     0.024     0.953   0.915881E-03
     0.024     0.961   0.762309E-03
     0.024     0.969   0.609235E-03
     0.024     0.976   0.456574E-03
     0.024     0.984   0.304212E-03
     0.024     0.992   0.152056E-03
     0.024     1.000    0.00000    
     0.031     0.000   0.987864E-01
     0.031     0.008   0.963546E-01
     0.031     0.016   0.939818E-01
     0.031     0.024   0.916665E-01
     0.031     0.031   0.894073E-01
     0.031     0.039   0.872029E-01
     0.031     0.047   0.850518E-01
     0.031     0.055   0.829529E-01
     0.031     0.063   0.809048E-01
     0.031     0.071   0.789064E-01
     0.031     0.079   0.769563E-01
     0.031     0.087   0.750534E-01
     0.031     0.094   0.731965E-01
     0.031     0.102   0.713846E-01
     0.031     0.110   0.696164E-01
     0.031     0.118   0.678911E-01
     0.031     0.126   0.662074E-01
     0.031     0.134   0.645645E-01
     0.031     0.142   0.629611E-01
     0.031     0.150   0.613966E-01
     0.031     0.157   0.598698E-01
     0.031     0.165   0.583799E-01
     0.031     0.173   0.569258E-01
     0.031     0.181   0.555069E-01
     0.031     0.189   0.541222E-01
     0.031     0.197   0.527708E-01
     0.031     0.205   0.514520E-01
     0.031     0.213   0.501650E-01
     0.031     0.220   0.489088E-01
     0.031     0.228   0.476830E-01
     0.031     0.236   0.464866E-01
     0.031     0.244   0.453190E-01
     0.031     0.252   0.441793E-01
     0.031     0.260   0.430671E-01
     0.031     0.268   0.419815E-01
     0.031     0.276   0.409220E-01
     0.031     0.283   0.398878E-01
     0.031     0.291   0.388784E-01
     0.031     0.299   0.378931E-01
     0.031     0.307   0.369314E-01
     0.031     0.315   0.359926E-01
     0.031     0.323   0.350763E-01
     0.031     0.331   0.341817E-01
     0.031     0.339   0.333086E-01
     0.031     0.346   0.324561E-01
     0.031     0.354   0.316240E-01
     0.031     0.362   0.308115E-01
     0.031     0.370   0.300184E-01
     0.031     0.378   0.292440E-01
     0.031     0.386   0.284880E-01
     0.031     0.394   0.277497E-01
     0.031     0.402   0.270289E-01
     0.031     0.409   0.263250E-01
     0.031     0.417   0.256378E-01
     0.031     0.425   0.249666E-01
     0.031     0.433   0.243111E-01
     0.031     0.441   0.236709E-01
     0.031     0.449   0.230457E-01
     0.031     0.457   0.224350E-01
     0.031     0.465   0.218385E-01
     0.031     0.472   0.212558E-01
     0.031     0.480   0.206866E-01
     0.031     0.488   0.201304E-01
     0.031     0.496   0.195871E-01
     0.031     0.504   0.190561E-01
     0.031     0.512   0.185373E-01
     0.031     0.520   0.180302E-01
     0.031     0.528   0.175347E-01
     0.031     0.535   0.170502E-01
     0.031     0.543   0.165767E-01
     0.031     0.551   0.161138E-01
     0.031     0.559   0.156612E-01
     0.031     0.567   0.152185E-01
     0.031     0.575   0.147857E-01
     0.031     0.583   0.143623E-01
     0.031     0.591   0.139482E-01
     0.031     0.598   0.135430E-01
     0.031     0.606   0.131466E-01
     0.031     0.614   0.127585E-01
     0.031     0.622   0.123788E-01
     0.031     0.630   0.120069E-01
     0.031     0.638   0.116430E-01
     0.031     0.646   0.112864E-01
     0.031     0.654   0.109373E-01
     0.031     0.661   0.105951E-01
     0.031     0.669   0.102599E-01
     0.031     0.677   0.993131E-02
     0.031     0.685   0.960924E-02
     0.031     0.693   0.929334E-02
     0.031     0.701   0.898358E-02
     0.031     0.709   0.867959E-02
     0.031     0.717   0.838135E-02
     0.031     0.724   0.808851E-02
     0.031     0.732   0.780103E-02
     0.031     0.740   0.751859E-02
     0.031     0.748   0.724114E-02
     0.031     0.756   0.696837E-02
     0.031     0.764   0.670025E-02
     0.031     0.772   0.643646E-02
     0.031     0.780   0.617696E-02
     0.031     0.787   0.592147E-02
     0.031     0.795   0.566994E-02
     0.031     0.803   0.542209E-02
     0.031     0.811   0.517787E-02
     0.031     0.819   0.493701E-02
     0.031     0.827   0.469947E-02
     0.031     0.835   0.446498E-02
     0.031     0.843   0.423350E-02
     0.031     0.850   0.400477E-02
     0.031     0.858   0.377874E-02
     0.031     0.866   0.355517E-02
     0.031     0.874   0.333400E-02
     0.031     0.882   0.311501E-02
     0.031     0.890   0.289811E-02
     0.031     0.898   0.268311E-02
     0.031     0.906   0.246993E-02
     0.031     0.913   0.225835E-02
     0.031     0.921   0.204830E-02
     0.031     0.929   0.183960E-02
     0.031     0.937   0.163213E-02
     0.031     0.945   0.142574E-02
     0.031     0.953   0.122031E-02
     0.031     0.961   0.101568E-02
     0.031     0.969   0.811738E-03
     0.031     0.976   0.608327E-03
     0.031     0.984   0.405329E-03
     0.031     0.992   0.202596E-03
     0.031     1.000    0.00000    
     0.039     0.000   0.123370    
     0.039     0.008   0.120333    
     0.039     0.016   0.117369    
     0.039     0.024   0.114478    
     0.039     0.031   0.111656    
     0.039     0.039   0.108903    
     0.039     0.047   0.106217    
     0.039     0.055   0.103596    
     0.039     0.063   0.101038    
     0.039     0.071   0.985424E-01
     0.039     0.079   0.961070E-01
     0.039     0.087   0.937305E-01
     0.039     0.094   0.914116E-01
     0.039     0.102   0.891488E-01
     0.039     0.110   0.869407E-01
     0.039     0.118   0.847859E-01
     0.039     0.126   0.826833E-01
     0.039     0.134   0.806314E-01
     0.039     0.142   0.786292E-01
     0.039     0.150   0.766753E-01
     0.039     0.157   0.747685E-01
     0.039     0.165   0.729078E-01
     0.039     0.173   0.710920E-01
     0.039     0.181   0.693199E-01
     0.039     0.189   0.675906E-01
     0.039     0.197   0.659029E-01
     0.039     0.205   0.642560E-01
     0.039     0.213   0.626486E-01
     0.039     0.220   0.610800E-01
     0.039     0.228   0.595490E-01
     0.039     0.236   0.580549E-01
     0.039     0.244   0.565966E-01
     0.039     0.252   0.551735E-01
     0.039     0.260   0.537844E-01
     0.039     0.268   0.524287E-01
     0.039     0.276   0.511054E-01
     0.039     0.283   0.498140E-01
     0.039     0.291   0.485533E-01
     0.039     0.299   0.473229E-01
     0.039     0.307   0.461218E-01
     0.039     0.315   0.449495E-01
     0.039     0.323   0.438051E-01
     0.039     0.331   0.426880E-01
     0.039     0.339   0.415975E-01
     0.039     0.346   0.405329E-01
     0.039     0.354   0.394936E-01
     0.039     0.362   0.384791E-01
     0.039     0.370   0.374885E-01
     0.039     0.378   0.365215E-01
     0.039     0.386   0.355772E-01
     0.039     0.394   0.346553E-01
     0.039     0.402   0.337551E-01
     0.039     0.409   0.328762E-01
     0.039     0.417   0.320178E-01
     0.039     0.425   0.311796E-01
     0.039     0.433   0.303610E-01
     0.039     0.441   0.295616E-01
     0.039     0.449   0.287807E-01
     0.039     0.457   0.280181E-01
     0.039     0.465   0.272731E-01
     0.039     0.472   0.265454E-01
     0.039     0.480   0.258344E-01
     0.039     0.488   0.251399E-01
     0.039     0.496   0.244613E-01
     0.039     0.504   0.237983E-01
     0.039     0.512   0.231502E-01
     0.039     0.520   0.225171E-01
     0.039     0.528   0.218981E-01
     0.039     0.535   0.212933E-01
     0.039     0.543   0.207018E-01
     0.039     0.551   0.201238E-01
     0.039     0.559   0.195584E-01
     0.039     0.567   0.190058E-01
     0.039     0.575   0.184651E-01
     0.039     0.583   0.179365E-01
     0.039     0.591   0.174192E-01
     0.039     0.598   0.169132E-01
     0.039     0.606   0.164180E-01
     0.039     0.614   0.159335E-01
     0.039     0.622   0.154592E-01
     0.039     0.630   0.149949E-01
     0.039     0.638   0.145403E-01
     0.039     0.646   0.140951E-01
     0.039     0.654   0.136590E-01
     0.039     0.661   0.132318E-01
     0.039     0.669   0.128131E-01
     0.039     0.677   0.124028E-01
     0.039     0.685   0.120005E-01
     0.039     0.693   0.116061E-01
     0.039     0.701   0.112191E-01
     0.039     0.709   0.108396E-01
     0.039     0.717   0.104670E-01
     0.039     0.724   0.101014E-01
     0.039     0.732   0.974229E-02
     0.039     0.740   0.938965E-02
     0.039     0.748   0.904307E-02
     0.039     0.756   0.870251E-02
     0.039     0.764   0.836758E-02
     0.039     0.772   0.803822E-02
     0.039     0.780   0.771407E-02
     0.039     0.787   0.739508E-02
     0.039     0.795   0.708088E-02
     0.039     0.803   0.677142E-02
     0.039     0.811   0.646636E-02
     0.039     0.819   0.616563E-02
     0.039     0.827   0.586891E-02
     0.039     0.835   0.557614E-02
     0.039     0.843   0.528699E-02
     0.039     0.850   0.500140E-02
     0.039     0.858   0.471906E-02
     0.039     0.866   0.443991E-02
     0.039     0.874   0.416365E-02
     0.039     0.882   0.389021E-02
     0.039     0.890   0.361930E-02
     0.039     0.898   0.335083E-02
     0.039     0.906   0.308455E-02
     0.039     0.913   0.282036E-02
     0.039     0.921   0.255801E-02
     0.039     0.929   0.229740E-02
     0.039     0.937   0.203828E-02
     0.039     0.945   0.178055E-02
     0.039     0.953   0.152398E-02
     0.039     0.961   0.126844E-02
     0.039     0.969   0.101373E-02
     0.039     0.976   0.759715E-03
     0.039     0.984   0.506193E-03
     0.039     0.992   0.253014E-03
     0.039     1.000    0.00000    
     0.047     0.000   0.147877    
     0.047     0.008   0.144237    
     0.047     0.016   0.140685    
     0.047     0.024   0.137219    
     0.047     0.031   0.133837    
     0.047     0.039   0.130537    
     0.047     0.047   0.127318    
     0.047     0.055   0.124176    
     0.047     0.063   0.121110    
     0.047     0.071   0.118118    
     0.047     0.079   0.115199    
     0.047     0.087   0.112350    
     0.047     0.094   0.109571    
     0.047     0.102   0.106858    
     0.047     0.110   0.104212    
     0.047     0.118   0.101629    
     0.047     0.126   0.991085E-01
     0.047     0.134   0.966491E-01
     0.047     0.142   0.942491E-01
     0.047     0.150   0.919070E-01
     0.047     0.157   0.896215E-01
     0.047     0.165   0.873912E-01
     0.047     0.173   0.852146E-01
     0.047     0.181   0.830905E-01
     0.047     0.189   0.810176E-01
     0.047     0.197   0.789948E-01
     0.047     0.205   0.770205E-01
     0.047     0.213   0.750939E-01
     0.047     0.220   0.732136E-01
     0.047     0.228   0.713786E-01
     0.047     0.236   0.695876E-01
     0.047     0.244   0.678398E-01
     0.047     0.252   0.661338E-01
     0.047     0.260   0.644689E-01
     0.047     0.268   0.628438E-01
     0.047     0.276   0.612577E-01
     0.047     0.283   0.597096E-01
     0.047     0.291   0.581986E-01
     0.047     0.299   0.567237E-01
     0.047     0.307   0.552841E-01
     0.047     0.315   0.538788E-01
     0.047     0.323   0.525071E-01
     0.047     0.331   0.511680E-01
     0.047     0.339   0.498610E-01
     0.047     0.346   0.485849E-01
     0.047     0.354   0.473392E-01
     0.047     0.362   0.461230E-01
     0.047     0.370   0.449358E-01
     0.047     0.378   0.437765E-01
     0.047     0.386   0.426448E-01
     0.047     0.394   0.415397E-01
     0.047     0.402   0.404607E-01
     0.047     0.409   0.394070E-01
     0.047     0.417   0.383782E-01
     0.047     0.425   0.373734E-01
     0.047     0.433   0.363923E-01
     0.047     0.441   0.354340E-01
     0.047     0.449   0.344981E-01
     0.047     0.457   0.335839E-01
     0.047     0.465   0.326910E-01
     0.047     0.472   0.318187E-01
     0.047     0.480   0.309666E-01
     0.047     0.488   0.301340E-01