Title="Temperature Data"
Variables="X","Y","T"
 
Zone I=   128, J=   128, F=POINT
     0.000     0.000    0.00000    
     0.000     0.008    0.00000    
     0.000     0.016    0.00000    
     0.000     0.024    0.00000    
     0.000     0.031    0.00000    
     0.000     0.039    0.00000    
     0.000     0.047    0.00000    
     0.000     0.055    0.00000    
     0.000     0.063    0.00000    
     0.000     0.071    0.00000    
     0.000     0.079    0.00000    
     0.000     0.087    0.00000    
     0.000     0.094    0.00000    
     0.000     0.102    0.00000    
     0.000     0.110    0.00000    
     0.000     0.118    0.00000    
     0.000     0.126    0.00000    
     0.000     0.134    0.00000    
     0.000     0.142    0.00000    
     0.000     0.150    0.00000    
     0.000     0.157    0.00000    
     0.000     0.165    0.00000    
     0.000     0.173    0.00000    
     0.000     0.181    0.00000    
     0.000     0.189    0.00000    
     0.000     0.197    0.00000    
     0.000     0.205    0.00000    
     0.000     0.213    0.00000    
     0.000     0.220    0.00000    
     0.000     0.228    0.00000    
     0.000     0.236    0.00000    
     0.000     0.244    0.00000    
     0.000     0.252    0.00000    
     0.000     0.260    0.00000    
     0.000     0.268    0.00000    
     0.000     0.276    0.00000    
     0.000     0.283    0.00000    
     0.000     0.291    0.00000    
     0.000     0.299    0.00000    
     0.000     0.307    0.00000    
     0.000     0.315    0.00000    
     0.000     0.323    0.00000    
     0.000     0.331    0.00000    
     0.000     0.339    0.00000    
     0.000     0.346    0.00000    
     0.000     0.354    0.00000    
     0.000     0.362    0.00000    
     0.000     0.370    0.00000    
     0.000     0.378    0.00000    
     0.000     0.386    0.00000    
     0.000     0.394    0.00000    
     0.000     0.402    0.00000    
     0.000     0.409    0.00000    
     0.000     0.417    0.00000    
     0.000     0.425    0.00000    
     0.000     0.433    0.00000    
     0.000     0.441    0.00000    
     0.000     0.449    0.00000    
     0.000     0.457    0.00000    
     0.000     0.465    0.00000    
     0.000     0.472    0.00000    
     0.000     0.480    0.00000    
     0.000     0.488    0.00000    
     0.000     0.496    0.00000    
     0.000     0.504    0.00000    
     0.000     0.512    0.00000    
     0.000     0.520    0.00000    
     0.000     0.528    0.00000    
     0.000     0.535    0.00000    
     0.000     0.543    0.00000    
     0.000     0.551    0.00000    
     0.000     0.559    0.00000    
     0.000     0.567    0.00000    
     0.000     0.575    0.00000    
     0.000     0.583    0.00000    
     0.000     0.591    0.00000    
     0.000     0.598    0.00000    
     0.000     0.606    0.00000    
     0.000     0.614    0.00000    
     0.000     0.622    0.00000    
     0.000     0.630    0.00000    
     0.000     0.638    0.00000    
     0.000     0.646    0.00000    
     0.000     0.654    0.00000    
     0.000     0.661    0.00000    
     0.000     0.669    0.00000    
     0.000     0.677    0.00000    
     0.000     0.685    0.00000    
     0.000     0.693    0.00000    
     0.000     0.701    0.00000    
     0.000     0.709    0.00000    
     0.000     0.717    0.00000    
     0.000     0.724    0.00000    
     0.000     0.732    0.00000    
     0.000     0.740    0.00000    
     0.000     0.748    0.00000    
     0.000     0.756    0.00000    
     0.000     0.764    0.00000    
     0.000     0.772    0.00000    
     0.000     0.780    0.00000    
     0.000     0.787    0.00000    
     0.000     0.795    0.00000    
     0.000     0.803    0.00000    
     0.000     0.811    0.00000    
     0.000     0.819    0.00000    
     0.000     0.827    0.00000    
     0.000     0.835    0.00000    
     0.000     0.843    0.00000    
     0.000     0.850    0.00000    
     0.000     0.858    0.00000    
     0.000     0.866    0.00000    
     0.000     0.874    0.00000    
     0.000     0.882    0.00000    
     0.000     0.890    0.00000    
     0.000     0.898    0.00000    
     0.000     0.906    0.00000    
     0.000     0.913    0.00000    
     0.000     0.921    0.00000    
     0.000     0.929    0.00000    
     0.000     0.937    0.00000    
     0.000     0.945    0.00000    
     0.000     0.953    0.00000    
     0.000     0.961    0.00000    
     0.000     0.969    0.00000    
     0.000     0.976    0.00000    
     0.000     0.984    0.00000    
     0.000     0.992    0.00000    
     0.000     1.000    0.00000    
     0.008     0.000   0.247344E-01
     0.008     0.008   0.240863E-01
     0.008     0.016   0.234529E-01
     0.008     0.024   0.228340E-01
     0.008     0.031   0.222293E-01
     0.008     0.039   0.216384E-01
     0.008     0.047   0.210611E-01
     0.008     0.055   0.204969E-01
     0.008     0.063   0.199458E-01
     0.008     0.071   0.194073E-01
     0.008     0.079   0.188813E-01
     0.008     0.087   0.183673E-01
     0.008     0.094   0.178654E-01
     0.008     0.102   0.173749E-01
     0.008     0.110   0.168959E-01
     0.008     0.118   0.164280E-01
     0.008     0.126   0.159711E-01
     0.008     0.134   0.155248E-01
     0.008     0.142   0.150891E-01
     0.008     0.150   0.146634E-01
     0.008     0.157   0.142481E-01
     0.008     0.165   0.138423E-01
     0.008     0.173   0.134464E-01
     0.008     0.181   0.130596E-01
     0.008     0.189   0.126824E-01
     0.008     0.197   0.123140E-01
     0.008     0.205   0.119547E-01
     0.008     0.213   0.116038E-01
     0.008     0.220   0.112618E-01
     0.008     0.228   0.109278E-01
     0.008     0.236   0.106023E-01
     0.008     0.244   0.102844E-01
     0.008     0.252   0.997478E-02
     0.008     0.260   0.967248E-02
     0.008     0.268   0.937808E-02
     0.008     0.276   0.909071E-02
     0.008     0.283   0.881095E-02
     0.008     0.291   0.853790E-02
     0.008     0.299   0.827219E-02
     0.008     0.307   0.801290E-02
     0.008     0.315   0.776068E-02
     0.008     0.323   0.751460E-02
     0.008     0.331   0.727533E-02
     0.008     0.339   0.704192E-02
     0.008     0.346   0.681508E-02
     0.008     0.354   0.659383E-02
     0.008     0.362   0.637891E-02
     0.008     0.370   0.616933E-02
     0.008     0.378   0.596583E-02
     0.008     0.386   0.576744E-02
     0.008     0.394   0.557490E-02
     0.008     0.402   0.538723E-02
     0.008     0.409   0.520519E-02
     0.008     0.417   0.502780E-02
     0.008     0.425   0.485581E-02
     0.008     0.433   0.468825E-02
     0.008     0.441   0.452589E-02
     0.008     0.449   0.436775E-02
     0.008     0.457   0.421458E-02
     0.008     0.465   0.406544E-02
     0.008     0.472   0.392108E-02
     0.008     0.480   0.378054E-02
     0.008     0.488   0.364458E-02
     0.008     0.496   0.351226E-02
     0.008     0.504   0.338431E-02
     0.008     0.512   0.325983E-02
     0.008     0.520   0.313953E-02
     0.008     0.528   0.302251E-02
     0.008     0.535   0.290950E-02
     0.008     0.543   0.279960E-02
     0.008     0.551   0.269352E-02
     0.008     0.559   0.259039E-02
     0.008     0.567   0.249089E-02
     0.008     0.575   0.239419E-02
     0.008     0.583   0.230096E-02
     0.008     0.591   0.221036E-02
     0.008     0.598   0.212306E-02
     0.008     0.606   0.203825E-02
     0.008     0.614   0.195656E-02
     0.008     0.622   0.187724E-02
     0.008     0.630   0.180086E-02
     0.008     0.638   0.172671E-02
     0.008     0.646   0.165536E-02
     0.008     0.654   0.158609E-02
     0.008     0.661   0.151947E-02
     0.008     0.669   0.145481E-02
     0.008     0.677   0.139264E-02
     0.008     0.685   0.133231E-02
     0.008     0.693   0.127432E-02
     0.008     0.701   0.121804E-02
     0.008     0.709   0.116397E-02
     0.008     0.717   0.111151E-02
     0.008     0.724   0.106110E-02
     0.008     0.732   0.101218E-02
     0.008     0.740   0.965190E-03
     0.008     0.748   0.919584E-03
     0.008     0.756   0.875767E-03
     0.008     0.764   0.833233E-03
     0.008     0.772   0.792358E-03
     0.008     0.780   0.752667E-03
     0.008     0.787   0.714509E-03
     0.008     0.795   0.677437E-03
     0.008     0.803   0.641774E-03
     0.008     0.811   0.607105E-03
     0.008     0.819   0.573724E-03
     0.008     0.827   0.541247E-03
     0.008     0.835   0.509939E-03
     0.008     0.843   0.479447E-03
     0.008     0.850   0.450010E-03
     0.008     0.858   0.421304E-03
     0.008     0.866   0.393539E-03
     0.008     0.874   0.366422E-03
     0.008     0.882   0.340136E-03
     0.008     0.890   0.314417E-03
     0.008     0.898   0.289420E-03
     0.008     0.906   0.264911E-03
     0.008     0.913   0.241018E-03
     0.008     0.921   0.217535E-03
     0.008     0.929   0.194563E-03
     0.008     0.937   0.171923E-03
     0.008     0.945   0.149692E-03
     0.008     0.953   0.127718E-03
     0.008     0.961   0.106049E-03
     0.008     0.969   0.845631E-04
     0.008     0.976   0.632801E-04
     0.008     0.984   0.421071E-04
     0.008     0.992   0.210352E-04
     0.008     1.000    0.00000    
     0.016     0.000   0.494537E-01
     0.016     0.008   0.481578E-01
     0.016     0.016   0.468915E-01
     0.016     0.024   0.456541E-01
     0.016     0.031   0.444450E-01
     0.016     0.039   0.432636E-01
     0.016     0.047   0.421092E-01
     0.016     0.055   0.409814E-01
     0.016     0.063   0.398793E-01
     0.016     0.071   0.388028E-01
     0.016     0.079   0.377509E-01
     0.016     0.087   0.367235E-01
     0.016     0.094   0.357196E-01
     0.016     0.102   0.347393E-01
     0.016     0.110   0.337814E-01
     0.016     0.118   0.328461E-01
     0.016     0.126   0.319323E-01
     0.016     0.134   0.310403E-01
     0.016     0.142   0.301687E-01
     0.016     0.150   0.293182E-01
     0.016     0.157   0.284872E-01
     0.016     0.165   0.276763E-01
     0.016     0.173   0.268843E-01
     0.016     0.181   0.261116E-01
     0.016     0.189   0.253568E-01
     0.016     0.197   0.246208E-01
     0.016     0.205   0.239018E-01
     0.016     0.213   0.232009E-01
     0.016     0.220   0.225164E-01
     0.016     0.228   0.218492E-01
     0.016     0.236   0.211977E-01
     0.016     0.244   0.205629E-01
     0.016     0.252   0.199431E-01
     0.016     0.260   0.193394E-01
     0.016     0.268   0.187501E-01
     0.016     0.276   0.181762E-01
     0.016     0.283   0.176161E-01
     0.016     0.291   0.170710E-01
     0.016     0.299   0.165389E-01
     0.016     0.307   0.160213E-01
     0.016     0.315   0.155162E-01
     0.016     0.323   0.150250E-01
     0.016     0.331   0.145458E-01
     0.016     0.339   0.140800E-01
     0.016     0.346   0.136256E-01
     0.016     0.354   0.131841E-01
     0.016     0.362   0.127535E-01
     0.016     0.370   0.123353E-01
     0.016     0.378   0.119276E-01
     0.016     0.386   0.115318E-01
     0.016     0.394   0.111460E-01
     0.016     0.402   0.107716E-01
     0.016     0.409   0.104068E-01
     0.016     0.417   0.100530E-01
     0.016     0.425   0.970822E-02
     0.016     0.433   0.937407E-02
     0.016     0.441   0.904858E-02
     0.016     0.449   0.873325E-02
     0.016     0.457   0.842616E-02
     0.016     0.465   0.812882E-02
     0.016     0.472   0.783933E-02
     0.016     0.480   0.755919E-02
     0.016     0.488   0.728651E-02
     0.016     0.496   0.702277E-02
     0.016     0.504   0.676614E-02
     0.016     0.512   0.651806E-02
     0.016     0.520   0.627673E-02
     0.016     0.528   0.604358E-02
     0.016     0.535   0.581682E-02
     0.016     0.543   0.559788E-02
     0.016     0.551   0.538500E-02
     0.016     0.559   0.517957E-02
     0.016     0.567   0.497989E-02
     0.016     0.575   0.478729E-02
     0.016     0.583   0.460014E-02
     0.016     0.591   0.441973E-02
     0.016     0.598   0.424446E-02
     0.016     0.606   0.407560E-02
     0.016     0.614   0.391159E-02
     0.016     0.622   0.375366E-02
     0.016     0.630   0.360030E-02
     0.016     0.638   0.345269E-02
     0.016     0.646   0.330939E-02
     0.016     0.654   0.317153E-02
     0.016     0.661   0.303771E-02
     0.016     0.669   0.290903E-02
     0.016     0.677   0.278414E-02
     0.016     0.685   0.266408E-02
     0.016     0.693   0.254758E-02
     0.016     0.701   0.243561E-02
     0.016     0.709   0.232697E-02
     0.016     0.717   0.222259E-02
     0.016     0.724   0.212130E-02
     0.016     0.732   0.202399E-02
     0.016     0.740   0.192956E-02
     0.016     0.748   0.183883E-02
     0.016     0.756   0.175078E-02
     0.016     0.764   0.166617E-02
     0.016     0.772   0.158403E-02
     0.016     0.780   0.150507E-02
     0.016     0.787   0.142839E-02
     0.016     0.795   0.135464E-02
     0.016     0.803   0.128298E-02
     0.016     0.811   0.121401E-02
     0.016     0.819   0.114693E-02
     0.016     0.827   0.108232E-02
     0.016     0.835   0.101942E-02
     0.016     0.843   0.958742E-03
     0.016     0.850   0.899611E-03
     0.016     0.858   0.842476E-03
     0.016     0.866   0.786718E-03
     0.016     0.874   0.732732E-03
     0.016     0.882   0.679959E-03
     0.016     0.890   0.628739E-03
     0.016     0.898   0.578573E-03
     0.016     0.906   0.529744E-03
     0.016     0.913   0.481812E-03
     0.016     0.921   0.435006E-03
     0.016     0.929   0.388943E-03
     0.016     0.937   0.343798E-03
     0.016     0.945   0.299243E-03
     0.016     0.953   0.255399E-03
     0.016     0.961   0.211997E-03
     0.016     0.969   0.169102E-03
     0.016     0.976   0.126501E-03
     0.016     0.984   0.842024E-04
     0.016     0.992   0.420506E-04
     0.016     1.000    0.00000    
     0.024     0.000   0.741428E-01
     0.024     0.008   0.721999E-01
     0.024     0.016   0.703014E-01
     0.024     0.024   0.684462E-01
     0.024     0.031   0.666335E-01
     0.024     0.039   0.648622E-01
     0.024     0.047   0.631317E-01
     0.024     0.055   0.614406E-01
     0.024     0.063   0.597887E-01
     0.024     0.071   0.581744E-01
     0.024     0.079   0.565977E-01
     0.024     0.087   0.550570E-01
     0.024     0.094   0.535523E-01
     0.024     0.102   0.520821E-01
     0.024     0.110   0.506465E-01
     0.024     0.118   0.492438E-01
     0.024     0.126   0.478743E-01
     0.024     0.134   0.465363E-01
     0.024     0.142   0.452304E-01
     0.024     0.150   0.439544E-01
     0.024     0.157   0.427093E-01
     0.024     0.165   0.414930E-01
     0.024     0.173   0.403062E-01
     0.024     0.181   0.391470E-01
     0.024     0.189   0.380163E-01
     0.024     0.197   0.369119E-01
     0.024     0.205   0.358349E-01
     0.024     0.213   0.347831E-01
     0.024     0.220   0.337578E-01
     0.024     0.228   0.327566E-01
     0.024     0.236   0.317808E-01
     0.024     0.244   0.308281E-01
     0.024     0.252   0.298999E-01
     0.024     0.260   0.289938E-01
     0.024     0.268   0.281113E-01
     0.024     0.276   0.272499E-01
     0.024     0.283   0.264113E-01
     0.024     0.291   0.255928E-01
     0.024     0.299   0.247963E-01
     0.024     0.307   0.240191E-01
     0.024     0.315   0.232631E-01
     0.024     0.323   0.225254E-01
     0.024     0.331   0.218082E-01
     0.024     0.339   0.211085E-01
     0.024     0.346   0.204286E-01
     0.024     0.354   0.197654E-01
     0.024     0.362   0.191211E-01
     0.024     0.370   0.184929E-01
     0.024     0.378   0.178829E-01
     0.024     0.386   0.172882E-01
     0.024     0.394   0.167111E-01
     0.024     0.402   0.161485E-01
     0.024     0.409   0.156028E-01
     0.024     0.417   0.150711E-01
     0.024     0.425   0.145555E-01
     0.024     0.433   0.140533E-01
     0.024     0.441   0.135666E-01
     0.024     0.449   0.130925E-01
     0.024     0.457   0.126334E-01
     0.024     0.465   0.121864E-01
     0.024     0.472   0.117536E-01
     0.024     0.480   0.113324E-01
     0.024     0.488   0.109248E-01
     0.024     0.496   0.105282E-01
     0.024     0.504   0.101446E-01
     0.024     0.512   0.977150E-02
     0.024     0.520   0.941090E-02
     0.024     0.528   0.906015E-02
     0.024     0.535   0.872138E-02
     0.024     0.543   0.839195E-02
     0.024     0.551   0.807396E-02
     0.024     0.559   0.776482E-02
     0.024     0.567   0.746658E-02
     0.024     0.575   0.717672E-02
     0.024     0.583   0.689724E-02
     0.024     0.591   0.662568E-02
     0.024     0.598   0.636398E-02
     0.024     0.606   0.610976E-02
     0.024     0.614   0.586491E-02
     0.024     0.622   0.562711E-02
     0.024     0.630   0.539819E-02
     0.024     0.638   0.517591E-02
     0.024     0.646   0.496203E-02
     0.024     0.654   0.475440E-02
     0.024     0.661   0.455470E-02
     0.024     0.669   0.436087E-02
     0.024     0.677   0.417451E-02
     0.024     0.685   0.399366E-02
     0.024     0.693   0.381983E-02
     0.024     0.701   0.365115E-02
     0.024     0.709   0.348907E-02
     0.024     0.717   0.333180E-02
     0.024     0.724   0.318070E-02
     0.024     0.732   0.303407E-02
     0.024     0.740   0.289321E-02
     0.024     0.748   0.275650E-02
     0.024     0.756   0.262516E-02
     0.024     0.764   0.249766E-02
     0.024     0.772   0.237514E-02
     0.024     0.780   0.225616E-02
     0.024     0.787   0.214178E-02
     0.024     0.795   0.203065E-02
     0.024     0.803   0.192375E-02
     0.024     0.811   0.181983E-02
     0.024     0.819   0.171977E-02
     0.024     0.827   0.162242E-02
     0.024     0.835   0.152857E-02
     0.024     0.843   0.143717E-02
     0.024     0.850   0.134893E-02
     0.024     0.858   0.126288E-02
     0.024     0.866   0.117965E-02
     0.024     0.874   0.109837E-02
     0.024     0.882   0.101958E-02
     0.024     0.890   0.942481E-03
     0.024     0.898   0.867553E-03
     0.024     0.906   0.794085E-03
     0.024     0.913   0.722465E-03
     0.024     0.921   0.652072E-03
     0.024     0.929   0.583211E-03
     0.024     0.937   0.515349E-03
     0.024     0.945   0.448709E-03
     0.024     0.953   0.382841E-03
     0.024     0.961   0.317886E-03
     0.024     0.969   0.253482E-03
     0.024     0.976   0.189685E-03
     0.024     0.984   0.126218E-03
     0.024     0.992   0.630543E-04
     0.024     1.000    0.00000    
     0.031     0.000   0.987864E-01
     0.031     0.008   0.961978E-01
     0.031     0.016   0.936682E-01
     0.031     0.024   0.911965E-01
     0.031     0.031   0.887812E-01
     0.031     0.039   0.864214E-01
     0.031     0.047   0.841153E-01
     0.031     0.055   0.818625E-01
     0.031     0.063   0.796611E-01
     0.031     0.071   0.775107E-01
     0.031     0.079   0.754095E-01
     0.031     0.087   0.733572E-01
     0.031     0.094   0.713518E-01
     0.031     0.102   0.693936E-01
     0.031     0.110   0.674801E-01
     0.031     0.118   0.656119E-01
     0.031     0.126   0.637865E-01
     0.031     0.134   0.620046E-01
     0.031     0.142   0.602636E-01
     0.031     0.150   0.585646E-01
     0.031     0.157   0.569046E-01
     0.031     0.165   0.552850E-01
     0.031     0.173   0.537027E-01
     0.031     0.181   0.521593E-01
     0.031     0.189   0.506516E-01
     0.031     0.197   0.491813E-01
     0.031     0.205   0.477452E-01
     0.031     0.213   0.463450E-01
     0.031     0.220   0.449777E-01
     0.031     0.228   0.436449E-01
     0.031     0.236   0.423435E-01
     0.031     0.244   0.410755E-01
     0.031     0.252   0.398374E-01
     0.031     0.260   0.386315E-01
     0.031     0.268   0.374542E-01
     0.031     0.276   0.363080E-01
     0.031     0.283   0.351891E-01
     0.031     0.291   0.341002E-01
     0.031     0.299   0.330374E-01
     0.031     0.307   0.320034E-01
     0.031     0.315   0.309945E-01
     0.031     0.323   0.300133E-01
     0.031     0.331   0.290560E-01
     0.031     0.339   0.281254E-01
     0.031     0.346   0.272178E-01
     0.031     0.354   0.263358E-01
     0.031     0.362   0.254758E-01
     0.031     0.370   0.246404E-01
     0.031     0.378   0.238260E-01
     0.031     0.386   0.230353E-01
     0.031     0.394   0.222646E-01
     0.031     0.402   0.215168E-01
     0.031     0.409   0.207881E-01
     0.031     0.417   0.200813E-01
     0.031     0.425   0.193927E-01
     0.031     0.433   0.187252E-01
     0.031     0.441   0.180750E-01
     0.031     0.449   0.174451E-01
     0.031     0.457   0.168317E-01
     0.031     0.465   0.162377E-01
     0.031     0.472   0.156595E-01
     0.031     0.480   0.150999E-01
     0.031     0.488   0.145552E-01
     0.031     0.496   0.140284E-01
     0.031     0.504   0.135157E-01
     0.031     0.512   0.130202E-01
     0.031     0.520   0.125381E-01
     0.031     0.528   0.120724E-01
     0.031     0.535   0.116194E-01
     0.031     0.543   0.111821E-01
     0.031     0.551   0.107568E-01
     0.031     0.559   0.103465E-01
     0.031     0.567   0.994759E-02
     0.031     0.575   0.956287E-02
     0.031     0.583   0.918902E-02
     0.031     0.591   0.882865E-02
     0.031     0.598   0.847854E-02
     0.031     0.606   0.814123E-02
     0.031     0.614   0.781361E-02
     0.031     0.622   0.749813E-02
     0.031     0.630   0.719178E-02
     0.031     0.638   0.689693E-02
     0.031     0.646   0.661068E-02
     0.031     0.654   0.633529E-02
     0.031     0.661   0.606799E-02
     0.031     0.669   0.581093E-02
     0.031     0.677   0.556146E-02
     0.031     0.685   0.532164E-02
     0.031     0.693   0.508892E-02
     0.031     0.701   0.486527E-02
     0.031     0.709   0.464825E-02
     0.031     0.717   0.443973E-02
     0.031     0.724   0.423740E-02
     0.031     0.732   0.404302E-02
     0.031     0.740   0.385439E-02
     0.031     0.748   0.367316E-02
     0.031     0.756   0.349727E-02
     0.031     0.764   0.332826E-02
     0.031     0.772   0.316418E-02
     0.031     0.780   0.300646E-02
     0.031     0.787   0.285328E-02
     0.031     0.795   0.270597E-02
     0.031     0.803   0.256282E-02
     0.031     0.811   0.242505E-02
     0.031     0.819   0.229106E-02
     0.031     0.827   0.216199E-02
     0.031     0.835   0.203634E-02
     0.031     0.843   0.191514E-02
     0.031     0.850   0.179702E-02
     0.031     0.858   0.168289E-02
     0.031     0.866   0.157151E-02
     0.031     0.874   0.146367E-02
     0.031     0.882   0.135825E-02
     0.031     0.890   0.125594E-02
     0.031     0.898   0.115573E-02
     0.031     0.906   0.105819E-02
     0.031     0.913   0.962445E-03
     0.031     0.921   0.868948E-03
     0.031     0.929   0.776934E-03
     0.031     0.937   0.686754E-03
     0.031     0.945   0.597753E-03
     0.031     0.953   0.510174E-03
     0.031     0.961   0.423476E-03
     0.031     0.969   0.337791E-03
     0.031     0.976   0.252692E-03
     0.031     0.984   0.168199E-03
     0.031     0.992   0.839984E-04
     0.031     1.000    0.00000    
     0.039     0.000   0.123370    
     0.039     0.008   0.120137    
     0.039     0.016   0.116978    
     0.039     0.024   0.113891    
     0.039     0.031   0.110875    
     0.039     0.039   0.107927    
     0.039     0.047   0.105048    
     0.039     0.055   0.102234    
     0.039     0.063   0.994852E-01
     0.039     0.071   0.967992E-01
     0.039     0.079   0.941756E-01
     0.039     0.087   0.916119E-01
     0.039     0.094   0.891083E-01
     0.039     0.102   0.866619E-01
     0.039     0.110   0.842731E-01
     0.039     0.118   0.819390E-01
     0.039     0.126   0.796604E-01
     0.039     0.134   0.774340E-01
     0.039     0.142   0.752610E-01
     0.039     0.150   0.731379E-01
     0.039     0.157   0.710661E-01
     0.039     0.165   0.690421E-01
     0.039     0.173   0.670675E-01
     0.039     0.181   0.651385E-01
     0.039     0.189   0.632571E-01
     0.039     0.197   0.614194E-01
     0.039     0.205   0.596274E-01
     0.039     0.213   0.578773E-01
     0.039     0.220   0.561713E-01
     0.039     0.228   0.545052E-01
     0.039     0.236   0.528816E-01
     0.039     0.244   0.512963E-01
     0.039     0.252   0.497519E-01
     0.039     0.260   0.482441E-01
     0.039     0.268   0.467757E-01
     0.039     0.276   0.453424E-01
     0.039     0.283   0.439470E-01
     0.039     0.291   0.425851E-01
     0.039     0.299   0.412598E-01
     0.039     0.307   0.399665E-01
     0.039     0.315   0.387085E-01
     0.039     0.323   0.374811E-01
     0.039     0.331   0.362877E-01
     0.039     0.339   0.351235E-01
     0.039     0.346   0.339920E-01
     0.039     0.354   0.328885E-01
     0.039     0.362   0.318165E-01
     0.039     0.370   0.307712E-01
     0.039     0.378   0.297562E-01
     0.039     0.386   0.287667E-01
     0.039     0.394   0.278063E-01
     0.039     0.402   0.268703E-01
     0.039     0.409   0.259623E-01
     0.039     0.417   0.250775E-01
     0.039     0.425   0.242197E-01
     0.039     0.433   0.233839E-01
     0.039     0.441   0.225741E-01
     0.039     0.449   0.217853E-01
     0.039     0.457   0.210214E-01
     0.039     0.465   0.202775E-01
     0.039     0.472   0.195574E-01
     0.039     0.480   0.188565E-01
     0.039     0.488   0.181783E-01
     0.039     0.496   0.175183E-01
     0.039     0.504   0.168802E-01
     0.039     0.512   0.162593E-01
     0.039     0.520   0.156592E-01
     0.039     0.528   0.150756E-01
     0.039     0.535   0.145119E-01
     0.039     0.543   0.139638E-01
     0.039     0.551   0.134346E-01
     0.039     0.559   0.129203E-01
     0.039     0.567   0.124240E-01
     0.039     0.575   0.119417E-01
     0.039     0.583   0.114766E-01
     0.039     0.591   0.110248E-01
     0.039     0.598   0.105893E-01
     0.039     0.606   0.101663E-01
     0.039     0.614   0.975890E-02
     0.039     0.622   0.936322E-02
     0.039     0.630   0.898230E-02
     0.039     0.638   0.861244E-02
     0.039     0.646   0.825655E-02
     0.039     0.654   0.791107E-02
     0.039     0.661   0.757877E-02
     0.039     0.669   0.725625E-02
     0.039     0.677   0.694616E-02
     0.039     0.685   0.664523E-02
     0.039     0.693   0.635599E-02
     0.039     0.701   0.607533E-02
     0.039     0.709   0.580563E-02
     0.039     0.717   0.554394E-02
     0.039     0.724   0.529251E-02
     0.039     0.732   0.504853E-02
     0.039     0.740   0.481415E-02
     0.039     0.748   0.458667E-02
     0.039     0.756   0.436812E-02
     0.039     0.764   0.415598E-02
     0.039     0.772   0.395210E-02
     0.039     0.780   0.375413E-02
     0.039     0.787   0.356381E-02
     0.039     0.795   0.337890E-02
     0.039     0.803   0.320102E-02
     0.039     0.811   0.302810E-02
     0.039     0.819   0.286160E-02
     0.039     0.827   0.269961E-02
     0.039     0.835   0.254346E-02
     0.039     0.843   0.239137E-02
     0.039     0.850   0.224455E-02
     0.039     0.858   0.210137E-02
     0.039     0.866   0.196288E-02
     0.039     0.874   0.182763E-02
     0.039     0.882   0.169652E-02
     0.039     0.890   0.156824E-02
     0.039     0.898   0.144356E-02
     0.039     0.906   0.132132E-02
     0.039     0.913   0.120214E-02
     0.039     0.921   0.108501E-02
     0.039     0.929   0.970433E-03
     0.039     0.937   0.857514E-03
     0.039     0.945   0.746627E-03
     0.039     0.953   0.637027E-03
     0.039     0.961   0.528946E-03
     0.039     0.969   0.421781E-03
     0.039     0.976   0.315627E-03
     0.039     0.984   0.210020E-03
     0.039     0.992   0.104919E-03
     0.039     1.000    0.00000    
     0.047     0.000   0.147877    
     0.047     0.008   0.144002    
     0.047     0.016   0.140216    
     0.047     0.024   0.136516    
     0.047     0.031   0.132900    
     0.047     0.039   0.129368    
     0.047     0.047   0.125916    
     0.047     0.055   0.122543    
     0.047     0.063   0.119248    
     0.047     0.071   0.116029    
     0.047     0.079   0.112883    
     0.047     0.087   0.109811    
     0.047     0.094   0.106809    
     0.047     0.102   0.103878    
     0.047     0.110   0.101014    
     0.047     0.118   0.982170E-01
     0.047     0.126   0.954845E-01
     0.047     0.134   0.928172E-01
     0.047     0.142   0.902111E-01
     0.047     0.150   0.876677E-01
     0.047     0.157   0.851828E-01
     0.047     0.165   0.827583E-01
     0.047     0.173   0.803898E-01
     0.047     0.181   0.780793E-01
     0.047     0.189   0.758224E-01
     0.047     0.197   0.736214E-01
     0.047     0.205   0.714717E-01
     0.047     0.213   0.693758E-01
     0.047     0.220   0.673289E-01
     0.047     0.228   0.653338E-01
     0.047     0.236   0.633857E-01
     0.047     0.244   0.614875E-01
     0.047     0.252   0.596342E-01
     0.047     0.260   0.578290E-01
     0.047     0.268   0.560667E-01
     0.047     0.276   0.543509E-01
     0.047     0.283   0.526760E-01
     0.047     0.291   0.510459E-01
     0.047     0.299   0.494550E-01
     0.047     0.307   0.479072E-01
     0.047     0.315   0.463969E-01
     0.047     0.323   0.449281E-01
     0.047     0.331   0.434951E-01
     0.047     0.339   0.421021E-01
     0.047     0.346   0.407434E-01
     0.047     0.354   0.394232E-01
     0.047     0.362   0.381357E-01
     0.047     0.370   0.368852E-01
     0.047     0.378   0.356661E-01
     0.047     0.386   0.344825E-01
     0.047     0.394   0.333288E-01
     0.047     0.402   0.322094E-01
     0.047     0.409   0.311185E-01
     0.047     0.417   0.300605E-01
     0.047     0.425   0.290297E-01
     0.047     0.433   0.280305E-01
     0.047     0.441   0.270572E-01
     0.047     0.449   0.261143E-01
     0.047     0.457   0.251960E-01
     0.047     0.465   0.243069E-01
     0.047     0.472   0.234413E-01
     0.047     0.480   0.226036E-01
     0.047     0.488   0.217882E-01