Title="Temperature Data"
Variables="X","Y","T"
 
Zone I=    50, J=    50, F=POINT
     0.000     0.000    0.00000    
     0.000     0.020    0.00000    
     0.000     0.041    0.00000    
     0.000     0.061    0.00000    
     0.000     0.082    0.00000    
     0.000     0.102    0.00000    
     0.000     0.122    0.00000    
     0.000     0.143    0.00000    
     0.000     0.163    0.00000    
     0.000     0.184    0.00000    
     0.000     0.204    0.00000    
     0.000     0.224    0.00000    
     0.000     0.245    0.00000    
     0.000     0.265    0.00000    
     0.000     0.286    0.00000    
     0.000     0.306    0.00000    
     0.000     0.327    0.00000    
     0.000     0.347    0.00000    
     0.000     0.367    0.00000    
     0.000     0.388    0.00000    
     0.000     0.408    0.00000    
     0.000     0.429    0.00000    
     0.000     0.449    0.00000    
     0.000     0.469    0.00000    
     0.000     0.490    0.00000    
     0.000     0.510    0.00000    
     0.000     0.531    0.00000    
     0.000     0.551    0.00000    
     0.000     0.571    0.00000    
     0.000     0.592    0.00000    
     0.000     0.612    0.00000    
     0.000     0.633    0.00000    
     0.000     0.653    0.00000    
     0.000     0.673    0.00000    
     0.000     0.694    0.00000    
     0.000     0.714    0.00000    
     0.000     0.735    0.00000    
     0.000     0.755    0.00000    
     0.000     0.776    0.00000    
     0.000     0.796    0.00000    
     0.000     0.816    0.00000    
     0.000     0.837    0.00000    
     0.000     0.857    0.00000    
     0.000     0.878    0.00000    
     0.000     0.898    0.00000    
     0.000     0.918    0.00000    
     0.000     0.939    0.00000    
     0.000     0.959    0.00000    
     0.000     0.980    0.00000    
     0.000     1.000    0.00000    
     0.020     0.000   0.640702E-01
     0.020     0.020   0.558146E-01
     0.020     0.041   0.479950E-01
     0.020     0.061   0.407607E-01
     0.020     0.082   0.342193E-01
     0.020     0.102   0.284292E-01
     0.020     0.122   0.234017E-01
     0.020     0.143   0.191095E-01
     0.020     0.163   0.154982E-01
     0.020     0.184   0.124968E-01
     0.020     0.204   0.100282E-01
     0.020     0.224   0.801508E-02
     0.020     0.245   0.638497E-02
     0.020     0.265   0.507260E-02
     0.020     0.286   0.402102E-02
     0.020     0.306   0.318160E-02
     0.020     0.327   0.251360E-02
     0.020     0.347   0.198335E-02
     0.020     0.367   0.156329E-02
     0.020     0.388   0.123106E-02
     0.020     0.408   0.968662E-03
     0.020     0.429   0.761633E-03
     0.020     0.449   0.598447E-03
     0.020     0.469   0.469916E-03
     0.020     0.490   0.368755E-03
     0.020     0.510   0.289180E-03
     0.020     0.531   0.226626E-03
     0.020     0.551   0.177476E-03
     0.020     0.571   0.138881E-03
     0.020     0.592   0.108590E-03
     0.020     0.612   0.848329E-04
     0.020     0.633   0.662096E-04
     0.020     0.653   0.516227E-04
     0.020     0.673   0.402039E-04
     0.020     0.694   0.312736E-04
     0.020     0.714   0.242941E-04
     0.020     0.735   0.188451E-04
     0.020     0.755   0.145935E-04
     0.020     0.776   0.112800E-04
     0.020     0.796   0.869850E-05
     0.020     0.816   0.668864E-05
     0.020     0.837   0.512289E-05
     0.020     0.857   0.390189E-05
     0.020     0.878   0.294620E-05
     0.020     0.898   0.219354E-05
     0.020     0.918   0.159343E-05
     0.020     0.939   0.110547E-05
     0.020     0.959   0.695824E-06
     0.020     0.980   0.335891E-06
     0.020     1.000    0.00000    
     0.041     0.000   0.127877    
     0.041     0.020   0.111193    
     0.041     0.041   0.954049E-01
     0.041     0.061   0.808287E-01
     0.041     0.082   0.676874E-01
     0.041     0.102   0.560960E-01
     0.041     0.122   0.460684E-01
     0.041     0.143   0.375387E-01
     0.041     0.163   0.303866E-01
     0.041     0.184   0.244614E-01
     0.041     0.204   0.196014E-01
     0.041     0.224   0.156476E-01
     0.041     0.245   0.124527E-01
     0.041     0.265   0.988495E-02
     0.041     0.286   0.783039E-02
     0.041     0.306   0.619229E-02
     0.041     0.327   0.488998E-02
     0.041     0.347   0.385703E-02
     0.041     0.367   0.303924E-02
     0.041     0.388   0.239279E-02
     0.041     0.408   0.188241E-02
     0.041     0.429   0.147987E-02
     0.041     0.449   0.116265E-02
     0.041     0.469   0.912863E-03
     0.041     0.490   0.716288E-03
     0.041     0.510   0.561688E-03
     0.041     0.531   0.440162E-03
     0.041     0.551   0.344690E-03
     0.041     0.571   0.269721E-03
     0.041     0.592   0.210891E-03
     0.041     0.612   0.164747E-03
     0.041     0.633   0.128580E-03
     0.041     0.653   0.100249E-03
     0.041     0.673   0.780751E-04
     0.041     0.694   0.607309E-04
     0.041     0.714   0.471782E-04
     0.041     0.735   0.365950E-04
     0.041     0.755   0.283399E-04
     0.041     0.776   0.219043E-04
     0.041     0.796   0.168920E-04
     0.041     0.816   0.129884E-04
     0.041     0.837   0.994838E-05
     0.041     0.857   0.757684E-05
     0.041     0.878   0.572138E-05
     0.041     0.898   0.425946E-05
     0.041     0.918   0.309437E-05
     0.041     0.939   0.214663E-05
     0.041     0.959   0.135127E-05
     0.041     0.980   0.652236E-06
     0.041     1.000    0.00000    
     0.061     0.000   0.191159    
     0.061     0.020   0.165676    
     0.061     0.041   0.141603    
     0.061     0.061   0.119462    
     0.061     0.082   0.996062E-01
     0.061     0.102   0.821994E-01
     0.061     0.122   0.672377E-01
     0.061     0.143   0.545910E-01
     0.061     0.163   0.440491E-01
     0.061     0.184   0.353617E-01
     0.061     0.204   0.282692E-01
     0.061     0.224   0.225223E-01
     0.061     0.245   0.178942E-01
     0.061     0.265   0.141851E-01
     0.061     0.286   0.112243E-01
     0.061     0.306   0.886821E-02
     0.061     0.327   0.699802E-02
     0.061     0.347   0.551651E-02
     0.061     0.367   0.434483E-02
     0.061     0.388   0.341938E-02
     0.061     0.408   0.268922E-02
     0.061     0.429   0.211364E-02
     0.061     0.449   0.166025E-02
     0.061     0.469   0.130335E-02
     0.061     0.490   0.102257E-02
     0.061     0.510   0.801783E-03
     0.061     0.531   0.628266E-03
     0.061     0.551   0.491959E-03
     0.061     0.571   0.384946E-03
     0.061     0.592   0.300968E-03
     0.061     0.612   0.235110E-03
     0.061     0.633   0.183490E-03
     0.061     0.653   0.143060E-03
     0.061     0.673   0.111412E-03
     0.061     0.694   0.866634E-04
     0.061     0.714   0.673211E-04
     0.061     0.735   0.522207E-04
     0.061     0.755   0.404391E-04
     0.061     0.776   0.312570E-04
     0.061     0.796   0.241034E-04
     0.061     0.816   0.185340E-04
     0.061     0.837   0.141953E-04
     0.061     0.857   0.108120E-04
     0.061     0.878   0.816375E-05
     0.061     0.898   0.607816E-05
     0.061     0.918   0.441528E-05
     0.061     0.939   0.306319E-05
     0.061     0.959   0.192808E-05
     0.061     0.980   0.930730E-06
     0.061     1.000    0.00000    
     0.082     0.000   0.253655    
     0.082     0.020   0.218750    
     0.082     0.041   0.185869    
     0.082     0.061   0.155811    
     0.082     0.082   0.129077    
     0.082     0.102   0.105858    
     0.082     0.122   0.860929E-01
     0.082     0.143   0.695396E-01
     0.082     0.163   0.558580E-01
     0.082     0.184   0.446683E-01
     0.082     0.204   0.355925E-01
     0.082     0.224   0.282797E-01
     0.082     0.245   0.224179E-01
     0.082     0.265   0.177385E-01
     0.082     0.286   0.140150E-01
     0.082     0.306   0.110597E-01
     0.082     0.327   0.871878E-02
     0.082     0.347   0.686760E-02
     0.082     0.367   0.540555E-02
     0.082     0.388   0.425204E-02
     0.082     0.408   0.334273E-02
     0.082     0.429   0.262644E-02
     0.082     0.449   0.206253E-02
     0.082     0.469   0.161883E-02
     0.082     0.490   0.126987E-02
     0.082     0.510   0.995568E-03
     0.082     0.531   0.780028E-03
     0.082     0.551   0.610752E-03
     0.082     0.571   0.477862E-03
     0.082     0.592   0.373600E-03
     0.082     0.612   0.291833E-03
     0.082     0.633   0.227755E-03
     0.082     0.653   0.177564E-03
     0.082     0.673   0.138284E-03
     0.082     0.694   0.107561E-03
     0.082     0.714   0.835560E-04
     0.082     0.735   0.648113E-04
     0.082     0.755   0.501905E-04
     0.082     0.776   0.387925E-04
     0.082     0.796   0.299154E-04
     0.082     0.816   0.230019E-04
     0.082     0.837   0.176182E-04
     0.082     0.857   0.134182E-04
     0.082     0.878   0.101322E-04
     0.082     0.898   0.754324E-05
     0.082     0.918   0.547993E-05
     0.082     0.939   0.380153E-05
     0.082     0.959   0.239299E-05
     0.082     0.980   0.115506E-05
     0.082     1.000    0.00000    
     0.102     0.000   0.315108    
     0.102     0.020   0.269798    
     0.102     0.041   0.227314    
     0.102     0.061   0.188837    
     0.102     0.082   0.155032    
     0.102     0.102   0.126066    
     0.102     0.122   0.101737    
     0.102     0.143   0.816178E-01
     0.102     0.163   0.651766E-01
     0.102     0.184   0.518624E-01
     0.102     0.204   0.411545E-01
     0.102     0.224   0.325877E-01
     0.102     0.245   0.257611E-01
     0.102     0.265   0.203377E-01
     0.102     0.286   0.160393E-01
     0.102     0.306   0.126385E-01
     0.102     0.327   0.995166E-02
     0.102     0.347   0.783130E-02
     0.102     0.367   0.615944E-02
     0.102     0.388   0.484214E-02
     0.102     0.408   0.380482E-02
     0.102     0.429   0.298836E-02
     0.102     0.449   0.234604E-02
     0.102     0.469   0.184090E-02
     0.102     0.490   0.144381E-02
     0.102     0.510   0.113175E-02
     0.102     0.531   0.886630E-03
     0.102     0.551   0.694147E-03
     0.102     0.571   0.543077E-03
     0.102     0.592   0.424555E-03
     0.102     0.612   0.331625E-03
     0.102     0.633   0.258796E-03
     0.102     0.653   0.201762E-03
     0.102     0.673   0.157122E-03
     0.102     0.694   0.122214E-03
     0.102     0.714   0.949349E-04
     0.102     0.735   0.736389E-04
     0.102     0.755   0.570241E-04
     0.102     0.776   0.440756E-04
     0.102     0.796   0.339879E-04
     0.102     0.816   0.261344E-04
     0.102     0.837   0.200163E-04
     0.102     0.857   0.152455E-04
     0.102     0.878   0.115113E-04
     0.102     0.898   0.857047E-05
     0.102     0.918   0.622573E-05
     0.102     0.939   0.431922E-05
     0.102     0.959   0.271866E-05
     0.102     0.980   0.131236E-05
     0.102     1.000    0.00000    
     0.122     0.000   0.375267    
     0.122     0.020   0.318022    
     0.122     0.041   0.264752    
     0.122     0.061   0.217192    
     0.122     0.082   0.176148    
     0.122     0.102   0.141637    
     0.122     0.122   0.113173    
     0.122     0.143   0.900194E-01
     0.122     0.163   0.713697E-01
     0.122     0.184   0.564519E-01
     0.122     0.204   0.445773E-01
     0.122     0.224   0.351574E-01
     0.122     0.245   0.277030E-01
     0.122     0.265   0.218142E-01
     0.122     0.286   0.171679E-01
     0.122     0.306   0.135053E-01
     0.122     0.327   0.106201E-01
     0.122     0.347   0.834852E-02
     0.122     0.367   0.656071E-02
     0.122     0.388   0.515416E-02
     0.122     0.408   0.404784E-02
     0.122     0.429   0.317791E-02
     0.122     0.449   0.249400E-02
     0.122     0.469   0.195650E-02
     0.122     0.490   0.153414E-02
     0.122     0.510   0.120237E-02
     0.122     0.531   0.941816E-03
     0.122     0.551   0.737282E-03
     0.122     0.571   0.576770E-03
     0.122     0.592   0.450870E-03
     0.122     0.612   0.352157E-03
     0.122     0.633   0.274811E-03
     0.122     0.653   0.214237E-03
     0.122     0.673   0.166836E-03
     0.122     0.694   0.129765E-03
     0.122     0.714   0.100801E-03
     0.122     0.735   0.781855E-04
     0.122     0.755   0.605464E-04
     0.122     0.776   0.467958E-04
     0.122     0.796   0.360869E-04
     0.122     0.816   0.277469E-04
     0.122     0.837   0.212523E-04
     0.122     0.857   0.161859E-04
     0.122     0.878   0.122221E-04
     0.122     0.898   0.909907E-05
     0.122     0.918   0.661017E-05
     0.122     0.939   0.458558E-05
     0.122     0.959   0.288654E-05
     0.122     0.980   0.139329E-05
     0.122     1.000    0.00000    
     0.143     0.000   0.433884    
     0.143     0.020   0.362271    
     0.143     0.041   0.296479    
     0.143     0.061   0.239032    
     0.143     0.082   0.190731    
     0.143     0.102   0.151163    
     0.143     0.122   0.119300    
     0.143     0.143   0.939183E-01
     0.143     0.163   0.738327E-01
     0.143     0.184   0.580001E-01
     0.143     0.204   0.455472E-01
     0.143     0.224   0.357637E-01
     0.143     0.245   0.280814E-01
     0.143     0.265   0.220501E-01
     0.143     0.286   0.173149E-01
     0.143     0.306   0.135969E-01
     0.143     0.327   0.106772E-01
     0.143     0.347   0.838402E-02
     0.143     0.367   0.658283E-02
     0.143     0.388   0.516791E-02
     0.143     0.408   0.405641E-02
     0.143     0.429   0.318323E-02
     0.143     0.449   0.249733E-02
     0.143     0.469   0.195856E-02
     0.143     0.490   0.153543E-02
     0.143     0.510   0.120316E-02
     0.143     0.531   0.942318E-03
     0.143     0.551   0.737588E-03
     0.143     0.571   0.576966E-03
     0.143     0.592   0.450987E-03
     0.143     0.612   0.352235E-03
     0.143     0.633   0.274855E-03
     0.143     0.653   0.214268E-03
     0.143     0.673   0.166852E-03
     0.143     0.694   0.129777E-03
     0.143     0.714   0.100806E-03
     0.143     0.735   0.781911E-04
     0.143     0.755   0.605480E-04
     0.143     0.776   0.467985E-04
     0.143     0.796   0.360871E-04
     0.143     0.816   0.277482E-04
     0.143     0.837   0.212522E-04
     0.143     0.857   0.161866E-04
     0.143     0.878   0.122219E-04
     0.143     0.898   0.909948E-05
     0.143     0.918   0.660999E-05
     0.143     0.939   0.458579E-05
     0.143     0.959   0.288645E-05
     0.143     0.980   0.139335E-05
     0.143     1.000    0.00000    
     0.163     0.000   0.490718    
     0.163     0.020   0.400701    
     0.163     0.041   0.319861    
     0.163     0.061   0.251727    
     0.163     0.082   0.196581    
     0.163     0.102   0.152986    
     0.163     0.122   0.118948    
     0.163     0.143   0.925225E-01
     0.163     0.163   0.720443E-01
     0.163     0.184   0.561703E-01
     0.163     0.204   0.438496E-01
     0.163     0.224   0.342708E-01
     0.163     0.245   0.268110E-01
     0.163     0.265   0.209921E-01
     0.163     0.286   0.164469E-01
     0.163     0.306   0.128924E-01
     0.163     0.327   0.101097E-01
     0.163     0.347   0.792973E-02
     0.163     0.367   0.622071E-02
     0.163     0.388   0.488028E-02
     0.163     0.408   0.382855E-02
     0.163     0.429   0.300314E-02
     0.163     0.449   0.235524E-02
     0.163     0.469   0.184663E-02
     0.163     0.490   0.144737E-02
     0.163     0.510   0.113398E-02
     0.163     0.531   0.888007E-03
     0.163     0.551   0.695010E-03
     0.163     0.571   0.543609E-03
     0.163     0.592   0.424890E-03
     0.163     0.612   0.331830E-03
     0.163     0.633   0.258927E-03
     0.163     0.653   0.201840E-03
     0.163     0.673   0.157173E-03
     0.163     0.694   0.122244E-03
     0.163     0.714   0.949556E-04
     0.163     0.735   0.736497E-04
     0.163     0.755   0.570326E-04
     0.163     0.776   0.440793E-04
     0.163     0.796   0.339916E-04
     0.163     0.816   0.261355E-04
     0.163     0.837   0.200180E-04
     0.163     0.857   0.152457E-04
     0.163     0.878   0.115121E-04
     0.163     0.898   0.857045E-05
     0.163     0.918   0.622612E-05
     0.163     0.939   0.431915E-05
     0.163     0.959   0.271882E-05
     0.163     0.980   0.131233E-05
     0.163     1.000    0.00000    
     0.184     0.000   0.545535    
     0.184     0.020   0.429955    
     0.184     0.041   0.330538    
     0.184     0.061   0.251435    
     0.184     0.082   0.190882    
     0.184     0.102   0.145252    
     0.184     0.122   0.110984    
     0.184     0.143   0.851811E-01
     0.184     0.163   0.656534E-01
     0.184     0.184   0.507891E-01
     0.184     0.204   0.394119E-01
     0.184     0.224   0.306608E-01
     0.184     0.245   0.239015E-01
     0.184     0.265   0.186625E-01
     0.184     0.286   0.145904E-01
     0.184     0.306   0.114179E-01
     0.184     0.327   0.894179E-02
     0.184     0.347   0.700641E-02
     0.184     0.367   0.549195E-02
     0.184     0.388   0.430581E-02
     0.184     0.408   0.337620E-02
     0.184     0.429   0.264727E-02
     0.184     0.449   0.207550E-02
     0.184     0.469   0.162690E-02
     0.184     0.490   0.127490E-02
     0.184     0.510   0.998691E-03
     0.184     0.531   0.781977E-03
     0.184     0.551   0.611960E-03
     0.184     0.571   0.478619E-03
     0.184     0.592   0.374066E-03
     0.184     0.612   0.292128E-03
     0.184     0.633   0.227935E-03
     0.184     0.653   0.177679E-03
     0.184     0.673   0.138353E-03
     0.184     0.694   0.107606E-03
     0.184     0.714   0.835821E-04
     0.184     0.735   0.648293E-04
     0.184     0.755   0.502001E-04
     0.184     0.776   0.387998E-04
     0.184     0.796   0.299189E-04
     0.184     0.816   0.230051E-04
     0.184     0.837   0.176193E-04
     0.184     0.857   0.134196E-04
     0.184     0.878   0.101325E-04
     0.184     0.898   0.754388E-05
     0.184     0.918   0.547996E-05
     0.184     0.939   0.380181E-05
     0.184     0.959   0.239298E-05
     0.184     0.980   0.115514E-05
     0.184     1.000    0.00000    
     0.204     0.000   0.598111    
     0.204     0.020   0.443047    
     0.204     0.041   0.320902    
     0.204     0.061   0.232593    
     0.204     0.082   0.170261    
     0.204     0.102   0.126157    
     0.204     0.122   0.945548E-01
     0.204     0.143   0.715661E-01
     0.204     0.163   0.546004E-01
     0.204     0.184   0.419223E-01
     0.204     0.204   0.323496E-01
     0.204     0.224   0.250607E-01
     0.204     0.245   0.194735E-01
     0.204     0.265   0.151679E-01
     0.204     0.286   0.118359E-01
     0.204     0.306   0.924882E-02
     0.204     0.327   0.723489E-02
     0.204     0.347   0.566394E-02
     0.204     0.367   0.443658E-02
     0.204     0.388   0.347649E-02
     0.204     0.408   0.272476E-02
     0.204     0.429   0.213576E-02
     0.204     0.449   0.167402E-02
     0.204     0.469   0.131193E-02
     0.204     0.490   0.102790E-02
     0.204     0.510   0.805105E-03
     0.204     0.531   0.630329E-03
     0.204     0.551   0.493247E-03
     0.204     0.571   0.385744E-03
     0.204     0.592   0.301468E-03
     0.204     0.612   0.235419E-03
     0.204     0.633   0.183684E-03
     0.204     0.653   0.143178E-03
     0.204     0.673   0.111488E-03
     0.204     0.694   0.867088E-04
     0.204     0.714   0.673511E-04
     0.204     0.735   0.522378E-04
     0.204     0.755   0.404511E-04
     0.204     0.776   0.312633E-04
     0.204     0.796   0.241083E-04
     0.204     0.816   0.185363E-04
     0.204     0.837   0.141974E-04
     0.204     0.857   0.108127E-04
     0.204     0.878   0.816466E-05
     0.204     0.898   0.607835E-05
     0.204     0.918   0.441569E-05
     0.204     0.939   0.306322E-05
     0.204     0.959   0.192824E-05
     0.204     0.980   0.930730E-06
     0.204     1.000    0.00000    
     0.224     0.000   0.648228    
     0.224     0.020   0.423221    
     0.224     0.041   0.277429    
     0.224     0.061   0.187774    
     0.224     0.082   0.131413    
     0.224     0.102   0.945602E-01
     0.224     0.122   0.695138E-01
     0.224     0.143   0.519290E-01
     0.224     0.163   0.392609E-01
     0.224     0.184   0.299513E-01
     0.224     0.204   0.230047E-01
     0.224     0.224   0.177603E-01
     0.224     0.245   0.137654E-01
     0.224     0.265   0.107011E-01
     0.224     0.286   0.833797E-02
     0.224     0.306   0.650805E-02
     0.224     0.327   0.508645E-02
     0.224     0.347   0.397928E-02
     0.224     0.367   0.311533E-02
     0.224     0.388   0.244014E-02
     0.224     0.408   0.191188E-02
     0.224     0.429   0.149821E-02
     0.224     0.449   0.117407E-02
     0.224     0.469   0.919965E-03
     0.224     0.490   0.720712E-03
     0.224     0.510   0.564438E-03
     0.224     0.531   0.441876E-03
     0.224     0.551   0.345754E-03
     0.224     0.571   0.270386E-03
     0.224     0.592   0.211302E-03
     0.224     0.612   0.165005E-03
     0.224     0.633   0.128739E-03
     0.224     0.653   0.100350E-03
     0.224     0.673   0.781362E-04
     0.224     0.694   0.607702E-04
     0.224     0.714   0.472015E-04
     0.224     0.735   0.366106E-04
     0.224     0.755   0.283487E-04
     0.224     0.776   0.219106E-04
     0.224     0.796   0.168953E-04
     0.224     0.816   0.129909E-04
     0.224     0.837   0.994951E-05
     0.224     0.857   0.757793E-05
     0.224     0.878   0.572173E-05
     0.224     0.898   0.425994E-05
     0.224     0.918   0.309446E-05
     0.224     0.939   0.214683E-05
     0.224     0.959   0.135128E-05
     0.224     0.980   0.652293E-06
     0.224     1.000    0.00000    
     0.245     0.000   0.695683    
     0.245     0.020   0.324180    
     0.245     0.041   0.177818    
     0.245     0.061   0.109663    
     0.245     0.082   0.730583E-01
     0.245     0.102   0.511575E-01
     0.245     0.122   0.370118E-01
     0.245     0.143   0.273760E-01
     0.245     0.163   0.205637E-01
     0.245     0.184   0.156183E-01
     0.245     0.204   0.119585E-01
     0.245     0.224   0.921149E-02
     0.245     0.245   0.712759E-02
     0.245     0.265   0.553400E-02
     0.245     0.286   0.430786E-02
     0.245     0.306   0.336000E-02
     0.245     0.327   0.262458E-02
     0.245     0.347   0.205240E-02
     0.245     0.367   0.160626E-02
     0.245     0.388   0.125781E-02
     0.245     0.408   0.985302E-03
     0.245     0.429   0.771991E-03
     0.245     0.449   0.604891E-03
     0.245     0.469   0.473929E-03
     0.245     0.490   0.371251E-03
     0.245     0.510   0.290736E-03
     0.245     0.531   0.227592E-03
     0.245     0.551   0.178078E-03
     0.245     0.571   0.139255E-03
     0.245     0.592   0.108824E-03
     0.245     0.612   0.849774E-04
     0.245     0.633   0.663005E-04
     0.245     0.653   0.516784E-04
     0.245     0.673   0.402393E-04
     0.245     0.694   0.312950E-04
     0.245     0.714   0.243080E-04
     0.245     0.735   0.188532E-04
     0.245     0.755   0.145991E-04
     0.245     0.776   0.112831E-04
     0.245     0.796   0.870073E-05
     0.245     0.816   0.668974E-05
     0.245     0.837   0.512381E-05
     0.245     0.857   0.390227E-05
     0.245     0.878   0.294659E-05
     0.245     0.898   0.219365E-05
     0.245     0.918   0.159360E-05
     0.245     0.939   0.110550E-05
     0.245     0.959   0.695890E-06
     0.245     0.980   0.335895E-06
     0.245     1.000    0.00000    
     0.265     0.000   0.740278    
     0.265     0.020   0.380847    
     0.265     0.041   0.233514    
     0.265     0.061   0.160347    
     0.265     0.082   0.117612    
     0.265     0.102   0.895413E-01
     0.265     0.122   0.696293E-01
     0.265     0.143   0.548097E-01
     0.265     0.163   0.434511E-01
     0.265     0.184   0.345885E-01
     0.265     0.204   0.275982E-01
     0.265     0.224   0.220490E-01
     0.265     0.245   0.176267E-01
     0.265     0.265   0.140949E-01
     0.265     0.286   0.112706E-01
     0.265     0.306   0.901092E-02
     0.265     0.327   0.720243E-02
     0.265     0.347   0.575506E-02
     0.265     0.367   0.459680E-02
     0.265     0.388   0.367010E-02
     0.265     0.408   0.292884E-02
     0.265     0.429   0.233611E-02
     0.265     0.449   0.186226E-02
     0.265     0.469   0.148362E-02
     0.265     0.490   0.118115E-02
     0.265     0.510   0.939656E-03
     0.265     0.531   0.746919E-03
     0.265     0.551   0.593195E-03
     0.265     0.571   0.470645E-03
     0.265     0.592   0.373027E-03
     0.265     0.612   0.295312E-03
     0.265     0.633   0.233505E-03
     0.265     0.653   0.184384E-03
     0.265     0.673   0.145391E-03
     0.265     0.694   0.114463E-03
     0.265     0.714   0.899659E-04
     0.265     0.735   0.705790E-04
     0.265     0.755   0.552597E-04
     0.265     0.776   0.431634E-04
     0.265     0.796   0.336251E-04
     0.265     0.816   0.261050E-04
     0.265     0.837   0.201787E-04
     0.265     0.857   0.155002E-04
     0.265     0.878   0.117970E-04
     0.265     0.898   0.884483E-05
     0.265     0.918   0.646499E-05
     0.265     0.939   0.450734E-05
     0.265     0.959   0.284792E-05
     0.265     0.980   0.137780E-05
     0.265     1.000    0.00000    
     0.286     0.000   0.781831    
     0.286     0.020   0.549594    
     0.286     0.041   0.392864    
     0.286     0.061   0.290265    
     0.286     0.082   0.220559    
     0.286     0.102   0.170926    
     0.286     0.122   0.134168    
     0.286     0.143   0.106160    
     0.286     0.163   0.844084E-01
     0.286     0.184   0.673068E-01
     0.286     0.204   0.537579E-01
     0.286     0.224   0.429734E-01
     0.286     0.245   0.343657E-01
     0.286     0.265   0.274846E-01
     0.286     0.286   0.219794E-01
     0.286     0.306   0.175732E-01
     0.286     0.327   0.140464E-01
     0.286     0.347   0.112236E-01
     0.286     0.367   0.896458E-02
     0.286     0.388   0.715719E-02
     0.286     0.408   0.571154E-02
     0.286     0.429   0.455553E-02
     0.286     0.449   0.363147E-02
     0.286     0.469   0.289304E-02
     0.286     0.490   0.230322E-02
     0.286     0.510   0.183228E-02
     0.286     0.531   0.145645E-02
     0.286     0.551   0.115667E-02
     0.286     0.571   0.917723E-03
     0.286     0.592   0.727357E-03
     0.286     0.612   0.575833E-03
     0.286     0.633   0.455303E-03
     0.286     0.653   0.359532E-03
     0.286     0.673   0.283490E-03
     0.286     0.694   0.223192E-03
     0.286     0.714   0.175418E-03
     0.286     0.735   0.137623E-03
     0.286     0.755   0.107746E-03
     0.286     0.776   0.841649E-04
     0.286     0.796   0.655623E-04
     0.286     0.816   0.509027E-04
     0.286     0.837   0.393442E-04
     0.286     0.857   0.302243E-04
     0.286     0.878   0.230015E-04
     0.286     0.898   0.172469E-04
     0.286     0.918   0.126052E-04
     0.286     0.939   0.878910E-05
     0.286     0.959   0.555276E-05
     0.286     0.980   0.268665E-05
     0.286     1.000    0.00000    
     0.306     0.000   0.820172    
     0.306     0.020   0.642835    
     0.306     0.041   0.498084    
     0.306     0.061   0.387290    
     0.306     0.082   0.303435    
     0.306     0.102   0.239438    
     0.306     0.122   0.189960    
     0.306     0.143   0.151258    
     0.306     0.163   0.120720    
     0.306     0.184   0.964768E-01
     0.306     0.204   0.771576E-01
     0.306     0.224   0.617259E-01
     0.306     0.245   0.493829E-01
     0.306     0.265   0.395038E-01
     0.306     0.286   0.315943E-01
     0.306     0.306   0.252615E-01
     0.306     0.327   0.201915E-01
     0.306     0.347   0.161333E-01
     0.306     0.367   0.128856E-01
     0.306     0.388   0.102874E-01
     0.306     0.408   0.820914E-02
     0.306     0.429   0.654744E-02
     0.306     0.449   0.521915E-02
     0.306     0.469   0.415781E-02
     0.306     0.490   0.331004E-02
     0.306     0.510   0.263320E-02
     0.306     0.531   0.209305E-02
     0.306     0.551   0.166224E-02
     0.306     0.571   0.131881E-02
     0.306     0.592   0.104526E-02
     0.306     0.612   0.827487E-03
     0.306     0.633   0.654294E-03
     0.306     0.653   0.516649E-03
     0.306     0.673   0.407387E-03
     0.306     0.694   0.320725E-03
     0.306     0.714   0.252083E-03
     0.306     0.735   0.197761E-03
     0.306     0.755   0.154836E-03
     0.306     0.776   0.120942E-03
     0.306     0.796   0.942161E-04
     0.306     0.816   0.731450E-04
     0.306     0.837   0.565397E-04
     0.306     0.857   0.434308E-04
     0.306     0.878   0.330545E-04
     0.306     0.898   0.247828E-04
     0.306     0.918   0.181145E-04
     0.306     0.939   0.126293E-04
     0.306     0.959   0.797970E-05
     0.306     0.980   0.386053E-05
     0.306     1.000    0.00000    
     0.327     0.000   0.855143    
     0.327     0.020   0.703492    
     0.327     0.041   0.569347    
     0.327     0.061   0.457379    
     0.327     0.082   0.366458    
     0.327     0.102   0.293434    
     0.327     0.122   0.234979    
     0.327     0.143   0.188199    
     0.327     0.163   0.150741    
     0.327     0.184   0.120729    
     0.327     0.204   0.966764E-01
     0.327     0.224   0.773965E-01
     0.327     0.245   0.619436E-01
     0.327     0.265   0.495605E-01
     0.327     0.286   0.396399E-01
     0.327     0.306   0.316942E-01
     0.327     0.327   0.253322E-01
     0.327     0.347   0.202396E-01
     0.327     0.367   0.161645E-01
     0.327     0.388   0.129042E-01
     0.327     0.408   0.102969E-01
     0.327     0.429   0.821215E-02
     0.327     0.449   0.654592E-02
     0.327     0.469   0.521455E-02
     0.327     0.490   0.415123E-02
     0.327     0.510   0.330227E-02
     0.327     0.531   0.262485E-02
     0.327     0.551   0.208452E-02
     0.327     0.571   0.165385E-02
     0.327     0.592   0.131076E-02
     0.327     0.612   0.103769E-02