Title="Temperature Data"
Variables="X","Y","T"
 
Zone I=   128, J=   128, F=POINT
     0.000     0.000    0.00000    
     0.000     0.008    0.00000    
     0.000     0.016    0.00000    
     0.000     0.024    0.00000    
     0.000     0.031    0.00000    
     0.000     0.039    0.00000    
     0.000     0.047    0.00000    
     0.000     0.055    0.00000    
     0.000     0.063    0.00000    
     0.000     0.071    0.00000    
     0.000     0.079    0.00000    
     0.000     0.087    0.00000    
     0.000     0.094    0.00000    
     0.000     0.102    0.00000    
     0.000     0.110    0.00000    
     0.000     0.118    0.00000    
     0.000     0.126    0.00000    
     0.000     0.134    0.00000    
     0.000     0.142    0.00000    
     0.000     0.150    0.00000    
     0.000     0.157    0.00000    
     0.000     0.165    0.00000    
     0.000     0.173    0.00000    
     0.000     0.181    0.00000    
     0.000     0.189    0.00000    
     0.000     0.197    0.00000    
     0.000     0.205    0.00000    
     0.000     0.213    0.00000    
     0.000     0.220    0.00000    
     0.000     0.228    0.00000    
     0.000     0.236    0.00000    
     0.000     0.244    0.00000    
     0.000     0.252    0.00000    
     0.000     0.260    0.00000    
     0.000     0.268    0.00000    
     0.000     0.276    0.00000    
     0.000     0.283    0.00000    
     0.000     0.291    0.00000    
     0.000     0.299    0.00000    
     0.000     0.307    0.00000    
     0.000     0.315    0.00000    
     0.000     0.323    0.00000    
     0.000     0.331    0.00000    
     0.000     0.339    0.00000    
     0.000     0.346    0.00000    
     0.000     0.354    0.00000    
     0.000     0.362    0.00000    
     0.000     0.370    0.00000    
     0.000     0.378    0.00000    
     0.000     0.386    0.00000    
     0.000     0.394    0.00000    
     0.000     0.402    0.00000    
     0.000     0.409    0.00000    
     0.000     0.417    0.00000    
     0.000     0.425    0.00000    
     0.000     0.433    0.00000    
     0.000     0.441    0.00000    
     0.000     0.449    0.00000    
     0.000     0.457    0.00000    
     0.000     0.465    0.00000    
     0.000     0.472    0.00000    
     0.000     0.480    0.00000    
     0.000     0.488    0.00000    
     0.000     0.496    0.00000    
     0.000     0.504    0.00000    
     0.000     0.512    0.00000    
     0.000     0.520    0.00000    
     0.000     0.528    0.00000    
     0.000     0.535    0.00000    
     0.000     0.543    0.00000    
     0.000     0.551    0.00000    
     0.000     0.559    0.00000    
     0.000     0.567    0.00000    
     0.000     0.575    0.00000    
     0.000     0.583    0.00000    
     0.000     0.591    0.00000    
     0.000     0.598    0.00000    
     0.000     0.606    0.00000    
     0.000     0.614    0.00000    
     0.000     0.622    0.00000    
     0.000     0.630    0.00000    
     0.000     0.638    0.00000    
     0.000     0.646    0.00000    
     0.000     0.654    0.00000    
     0.000     0.661    0.00000    
     0.000     0.669    0.00000    
     0.000     0.677    0.00000    
     0.000     0.685    0.00000    
     0.000     0.693    0.00000    
     0.000     0.701    0.00000    
     0.000     0.709    0.00000    
     0.000     0.717    0.00000    
     0.000     0.724    0.00000    
     0.000     0.732    0.00000    
     0.000     0.740    0.00000    
     0.000     0.748    0.00000    
     0.000     0.756    0.00000    
     0.000     0.764    0.00000    
     0.000     0.772    0.00000    
     0.000     0.780    0.00000    
     0.000     0.787    0.00000    
     0.000     0.795    0.00000    
     0.000     0.803    0.00000    
     0.000     0.811    0.00000    
     0.000     0.819    0.00000    
     0.000     0.827    0.00000    
     0.000     0.835    0.00000    
     0.000     0.843    0.00000    
     0.000     0.850    0.00000    
     0.000     0.858    0.00000    
     0.000     0.866    0.00000    
     0.000     0.874    0.00000    
     0.000     0.882    0.00000    
     0.000     0.890    0.00000    
     0.000     0.898    0.00000    
     0.000     0.906    0.00000    
     0.000     0.913    0.00000    
     0.000     0.921    0.00000    
     0.000     0.929    0.00000    
     0.000     0.937    0.00000    
     0.000     0.945    0.00000    
     0.000     0.953    0.00000    
     0.000     0.961    0.00000    
     0.000     0.969    0.00000    
     0.000     0.976    0.00000    
     0.000     0.984    0.00000    
     0.000     0.992    0.00000    
     0.000     1.000    0.00000    
     0.008     0.000   0.247344E-01
     0.008     0.008   0.241248E-01
     0.008     0.016   0.235300E-01
     0.008     0.024   0.229495E-01
     0.008     0.031   0.223831E-01
     0.008     0.039   0.218304E-01
     0.008     0.047   0.212911E-01
     0.008     0.055   0.207649E-01
     0.008     0.063   0.202514E-01
     0.008     0.071   0.197503E-01
     0.008     0.079   0.192613E-01
     0.008     0.087   0.187841E-01
     0.008     0.094   0.183185E-01
     0.008     0.102   0.178641E-01
     0.008     0.110   0.174207E-01
     0.008     0.118   0.169880E-01
     0.008     0.126   0.165658E-01
     0.008     0.134   0.161537E-01
     0.008     0.142   0.157516E-01
     0.008     0.150   0.153592E-01
     0.008     0.157   0.149763E-01
     0.008     0.165   0.146026E-01
     0.008     0.173   0.142379E-01
     0.008     0.181   0.138820E-01
     0.008     0.189   0.135347E-01
     0.008     0.197   0.131958E-01
     0.008     0.205   0.128650E-01
     0.008     0.213   0.125421E-01
     0.008     0.220   0.122271E-01
     0.008     0.228   0.119196E-01
     0.008     0.236   0.116195E-01
     0.008     0.244   0.113266E-01
     0.008     0.252   0.110407E-01
     0.008     0.260   0.107617E-01
     0.008     0.268   0.104894E-01
     0.008     0.276   0.102236E-01
     0.008     0.283   0.996425E-02
     0.008     0.291   0.971105E-02
     0.008     0.299   0.946393E-02
     0.008     0.307   0.922270E-02
     0.008     0.315   0.898726E-02
     0.008     0.323   0.875742E-02
     0.008     0.331   0.853309E-02
     0.008     0.339   0.831408E-02
     0.008     0.346   0.810032E-02
     0.008     0.354   0.789161E-02
     0.008     0.362   0.768790E-02
     0.008     0.370   0.748900E-02
     0.008     0.378   0.729485E-02
     0.008     0.386   0.710526E-02
     0.008     0.394   0.692020E-02
     0.008     0.402   0.673948E-02
     0.008     0.409   0.656306E-02
     0.008     0.417   0.639076E-02
     0.008     0.425   0.622255E-02
     0.008     0.433   0.605825E-02
     0.008     0.441   0.589785E-02
     0.008     0.449   0.574116E-02
     0.008     0.457   0.558817E-02
     0.008     0.465   0.543871E-02
     0.008     0.472   0.529276E-02
     0.008     0.480   0.515016E-02
     0.008     0.488   0.501090E-02
     0.008     0.496   0.487482E-02
     0.008     0.504   0.474190E-02
     0.008     0.512   0.461199E-02
     0.008     0.520   0.448510E-02
     0.008     0.528   0.436105E-02
     0.008     0.535   0.423986E-02
     0.008     0.543   0.412138E-02
     0.008     0.551   0.400560E-02
     0.008     0.559   0.389238E-02
     0.008     0.567   0.378173E-02
     0.008     0.575   0.367350E-02
     0.008     0.583   0.356769E-02
     0.008     0.591   0.346418E-02
     0.008     0.598   0.336296E-02
     0.008     0.606   0.326391E-02
     0.008     0.614   0.316703E-02
     0.008     0.622   0.307219E-02
     0.008     0.630   0.297940E-02
     0.008     0.638   0.288853E-02
     0.008     0.646   0.279960E-02
     0.008     0.654   0.271249E-02
     0.008     0.661   0.262720E-02
     0.008     0.669   0.254361E-02
     0.008     0.677   0.246173E-02
     0.008     0.685   0.238146E-02
     0.008     0.693   0.230280E-02
     0.008     0.701   0.222564E-02
     0.008     0.709   0.214999E-02
     0.008     0.717   0.207574E-02
     0.008     0.724   0.200291E-02
     0.008     0.732   0.193139E-02
     0.008     0.740   0.186118E-02
     0.008     0.748   0.179220E-02
     0.008     0.756   0.172444E-02
     0.008     0.764   0.165782E-02
     0.008     0.772   0.159233E-02
     0.008     0.780   0.152789E-02
     0.008     0.787   0.146451E-02
     0.008     0.795   0.140208E-02
     0.008     0.803   0.134063E-02
     0.008     0.811   0.128006E-02
     0.008     0.819   0.122038E-02
     0.008     0.827   0.116150E-02
     0.008     0.835   0.110343E-02
     0.008     0.843   0.104609E-02
     0.008     0.850   0.989478E-03
     0.008     0.858   0.933522E-03
     0.008     0.866   0.878214E-03
     0.008     0.874   0.823490E-03
     0.008     0.882   0.769340E-03
     0.008     0.890   0.715702E-03
     0.008     0.898   0.662563E-03
     0.008     0.906   0.609865E-03
     0.008     0.913   0.557594E-03
     0.008     0.921   0.505694E-03
     0.008     0.929   0.454148E-03
     0.008     0.937   0.402905E-03
     0.008     0.945   0.351943E-03
     0.008     0.953   0.301217E-03
     0.008     0.961   0.250702E-03
     0.008     0.969   0.200354E-03
     0.008     0.976   0.150147E-03
     0.008     0.984   0.100040E-03
     0.008     0.992   0.500034E-04
     0.008     1.000    0.00000    
     0.016     0.000   0.494537E-01
     0.016     0.008   0.482349E-01
     0.016     0.016   0.470455E-01
     0.016     0.024   0.458850E-01
     0.016     0.031   0.447526E-01
     0.016     0.039   0.436475E-01
     0.016     0.047   0.425693E-01
     0.016     0.055   0.415171E-01
     0.016     0.063   0.404903E-01
     0.016     0.071   0.394884E-01
     0.016     0.079   0.385108E-01
     0.016     0.087   0.375567E-01
     0.016     0.094   0.366258E-01
     0.016     0.102   0.357173E-01
     0.016     0.110   0.348308E-01
     0.016     0.118   0.339657E-01
     0.016     0.126   0.331214E-01
     0.016     0.134   0.322976E-01
     0.016     0.142   0.314936E-01
     0.016     0.150   0.307091E-01
     0.016     0.157   0.299435E-01
     0.016     0.165   0.291963E-01
     0.016     0.173   0.284671E-01
     0.016     0.181   0.277556E-01
     0.016     0.189   0.270611E-01
     0.016     0.197   0.263834E-01
     0.016     0.205   0.257220E-01
     0.016     0.213   0.250766E-01
     0.016     0.220   0.244466E-01
     0.016     0.228   0.238318E-01
     0.016     0.236   0.232318E-01
     0.016     0.244   0.226462E-01
     0.016     0.252   0.220747E-01
     0.016     0.260   0.215169E-01
     0.016     0.268   0.209724E-01
     0.016     0.276   0.204410E-01
     0.016     0.283   0.199224E-01
     0.016     0.291   0.194162E-01
     0.016     0.299   0.189220E-01
     0.016     0.307   0.184398E-01
     0.016     0.315   0.179690E-01
     0.016     0.323   0.175095E-01
     0.016     0.331   0.170609E-01
     0.016     0.339   0.166231E-01
     0.016     0.346   0.161956E-01
     0.016     0.354   0.157784E-01
     0.016     0.362   0.153711E-01
     0.016     0.370   0.149734E-01
     0.016     0.378   0.145852E-01
     0.016     0.386   0.142062E-01
     0.016     0.394   0.138361E-01
     0.016     0.402   0.134749E-01
     0.016     0.409   0.131221E-01
     0.016     0.417   0.127776E-01
     0.016     0.425   0.124413E-01
     0.016     0.433   0.121128E-01
     0.016     0.441   0.117921E-01
     0.016     0.449   0.114788E-01
     0.016     0.457   0.111729E-01
     0.016     0.465   0.108741E-01
     0.016     0.472   0.105823E-01
     0.016     0.480   0.102972E-01
     0.016     0.488   0.100187E-01
     0.016     0.496   0.974668E-02
     0.016     0.504   0.948086E-02
     0.016     0.512   0.922120E-02
     0.016     0.520   0.896741E-02
     0.016     0.528   0.871947E-02
     0.016     0.535   0.847710E-02
     0.016     0.543   0.824027E-02
     0.016     0.551   0.800872E-02
     0.016     0.559   0.778242E-02
     0.016     0.567   0.756111E-02
     0.016     0.575   0.734478E-02
     0.016     0.583   0.713317E-02
     0.016     0.591   0.692627E-02
     0.016     0.598   0.672383E-02
     0.016     0.606   0.652585E-02
     0.016     0.614   0.633208E-02
     0.016     0.622   0.614253E-02
     0.016     0.630   0.595694E-02
     0.016     0.638   0.577533E-02
     0.016     0.646   0.559747E-02
     0.016     0.654   0.542335E-02
     0.016     0.661   0.525275E-02
     0.016     0.669   0.508569E-02
     0.016     0.677   0.492193E-02
     0.016     0.685   0.476150E-02
     0.016     0.693   0.460417E-02
     0.016     0.701   0.444995E-02
     0.016     0.709   0.429864E-02
     0.016     0.717   0.415025E-02
     0.016     0.724   0.400457E-02
     0.016     0.732   0.386162E-02
     0.016     0.740   0.372120E-02
     0.016     0.748   0.358333E-02
     0.016     0.756   0.344780E-02
     0.016     0.764   0.331464E-02
     0.016     0.772   0.318366E-02
     0.016     0.780   0.305487E-02
     0.016     0.787   0.292809E-02
     0.016     0.795   0.280333E-02
     0.016     0.803   0.268042E-02
     0.016     0.811   0.255936E-02
     0.016     0.819   0.243999E-02
     0.016     0.827   0.232231E-02
     0.016     0.835   0.220617E-02
     0.016     0.843   0.209156E-02
     0.016     0.850   0.197834E-02
     0.016     0.858   0.186649E-02
     0.016     0.866   0.175588E-02
     0.016     0.874   0.164649E-02
     0.016     0.882   0.153820E-02
     0.016     0.890   0.143098E-02
     0.016     0.898   0.132471E-02
     0.016     0.906   0.121937E-02
     0.016     0.913   0.111484E-02
     0.016     0.921   0.101109E-02
     0.016     0.929   0.908010E-03
     0.016     0.937   0.805569E-03
     0.016     0.945   0.703666E-03
     0.016     0.953   0.602255E-03
     0.016     0.961   0.501247E-03
     0.016     0.969   0.400590E-03
     0.016     0.976   0.300200E-03
     0.016     0.984   0.200021E-03
     0.016     0.992   0.999754E-04
     0.016     1.000    0.00000    
     0.024     0.000   0.741428E-01
     0.024     0.008   0.723154E-01
     0.024     0.016   0.705323E-01
     0.024     0.024   0.687924E-01
     0.024     0.031   0.670946E-01
     0.024     0.039   0.654379E-01
     0.024     0.047   0.638213E-01
     0.024     0.055   0.622438E-01
     0.024     0.063   0.607045E-01
     0.024     0.071   0.592024E-01
     0.024     0.079   0.577367E-01
     0.024     0.087   0.563064E-01
     0.024     0.094   0.549106E-01
     0.024     0.102   0.535486E-01
     0.024     0.110   0.522195E-01
     0.024     0.118   0.509225E-01
     0.024     0.126   0.496568E-01
     0.024     0.134   0.484217E-01
     0.024     0.142   0.472164E-01
     0.024     0.150   0.460401E-01
     0.024     0.157   0.448923E-01
     0.024     0.165   0.437721E-01
     0.024     0.173   0.426790E-01
     0.024     0.181   0.416121E-01
     0.024     0.189   0.405710E-01
     0.024     0.197   0.395550E-01
     0.024     0.205   0.385634E-01
     0.024     0.213   0.375957E-01
     0.024     0.220   0.366513E-01
     0.024     0.228   0.357295E-01
     0.024     0.236   0.348300E-01
     0.024     0.244   0.339520E-01
     0.024     0.252   0.330951E-01
     0.024     0.260   0.322588E-01
     0.024     0.268   0.314426E-01
     0.024     0.276   0.306459E-01
     0.024     0.283   0.298684E-01
     0.024     0.291   0.291094E-01
     0.024     0.299   0.283686E-01
     0.024     0.307   0.276455E-01
     0.024     0.315   0.269398E-01
     0.024     0.323   0.262508E-01
     0.024     0.331   0.255784E-01
     0.024     0.339   0.249219E-01
     0.024     0.346   0.242811E-01
     0.024     0.354   0.236555E-01
     0.024     0.362   0.230449E-01
     0.024     0.370   0.224487E-01
     0.024     0.378   0.218667E-01
     0.024     0.386   0.212984E-01
     0.024     0.394   0.207437E-01
     0.024     0.402   0.202019E-01
     0.024     0.409   0.196731E-01
     0.024     0.417   0.191566E-01
     0.024     0.425   0.186524E-01
     0.024     0.433   0.181599E-01
     0.024     0.441   0.176791E-01
     0.024     0.449   0.172094E-01
     0.024     0.457   0.167508E-01
     0.024     0.465   0.163028E-01
     0.024     0.472   0.158653E-01
     0.024     0.480   0.154379E-01
     0.024     0.488   0.150204E-01
     0.024     0.496   0.146125E-01
     0.024     0.504   0.142141E-01
     0.024     0.512   0.138247E-01
     0.024     0.520   0.134443E-01
     0.024     0.528   0.130725E-01
     0.024     0.535   0.127092E-01
     0.024     0.543   0.123541E-01
     0.024     0.551   0.120070E-01
     0.024     0.559   0.116676E-01
     0.024     0.567   0.113359E-01
     0.024     0.575   0.110115E-01
     0.024     0.583   0.106943E-01
     0.024     0.591   0.103841E-01
     0.024     0.598   0.100807E-01
     0.024     0.606   0.978374E-02
     0.024     0.614   0.949333E-02
     0.024     0.622   0.920904E-02
     0.024     0.630   0.893090E-02
     0.024     0.638   0.865854E-02
     0.024     0.646   0.839196E-02
     0.024     0.654   0.813083E-02
     0.024     0.661   0.787516E-02
     0.024     0.669   0.762460E-02
     0.024     0.677   0.737918E-02
     0.024     0.685   0.713856E-02
     0.024     0.693   0.690277E-02
     0.024     0.701   0.667148E-02
     0.024     0.709   0.644471E-02
     0.024     0.717   0.622215E-02
     0.024     0.724   0.600383E-02
     0.024     0.732   0.578944E-02
     0.024     0.740   0.557899E-02
     0.024     0.748   0.537221E-02
     0.024     0.756   0.516910E-02
     0.024     0.764   0.496940E-02
     0.024     0.772   0.477309E-02
     0.024     0.780   0.457994E-02
     0.024     0.787   0.438993E-02
     0.024     0.795   0.420282E-02
     0.024     0.803   0.401861E-02
     0.024     0.811   0.383705E-02
     0.024     0.819   0.365815E-02
     0.024     0.827   0.348167E-02
     0.024     0.835   0.330759E-02
     0.024     0.843   0.313572E-02
     0.024     0.850   0.296601E-02
     0.024     0.858   0.279828E-02
     0.024     0.866   0.263249E-02
     0.024     0.874   0.246846E-02
     0.024     0.882   0.230614E-02
     0.024     0.890   0.214535E-02
     0.024     0.898   0.198607E-02
     0.024     0.906   0.182810E-02
     0.024     0.913   0.167142E-02
     0.024     0.921   0.151584E-02
     0.024     0.929   0.136133E-02
     0.024     0.937   0.120773E-02
     0.024     0.945   0.105497E-02
     0.024     0.953   0.902915E-03
     0.024     0.961   0.751493E-03
     0.024     0.969   0.600573E-03
     0.024     0.976   0.450074E-03
     0.024     0.984   0.299876E-03
     0.024     0.992   0.149888E-03
     0.024     1.000    0.00000    
     0.031     0.000   0.987864E-01
     0.031     0.008   0.963517E-01
     0.031     0.016   0.939759E-01
     0.031     0.024   0.916577E-01
     0.031     0.031   0.893956E-01
     0.031     0.039   0.871883E-01
     0.031     0.047   0.850343E-01
     0.031     0.055   0.829325E-01
     0.031     0.063   0.808816E-01
     0.031     0.071   0.788803E-01
     0.031     0.079   0.769273E-01
     0.031     0.087   0.750216E-01
     0.031     0.094   0.731619E-01
     0.031     0.102   0.713472E-01
     0.031     0.110   0.695763E-01
     0.031     0.118   0.678482E-01
     0.031     0.126   0.661618E-01
     0.031     0.134   0.645162E-01
     0.031     0.142   0.629102E-01
     0.031     0.150   0.613431E-01
     0.031     0.157   0.598137E-01
     0.031     0.165   0.583212E-01
     0.031     0.173   0.568646E-01
     0.031     0.181   0.554433E-01
     0.031     0.189   0.540560E-01
     0.031     0.197   0.527023E-01
     0.031     0.205   0.513811E-01
     0.031     0.213   0.500918E-01
     0.031     0.220   0.488334E-01
     0.031     0.228   0.476054E-01
     0.031     0.236   0.464067E-01
     0.031     0.244   0.452370E-01
     0.031     0.252   0.440953E-01
     0.031     0.260   0.429811E-01
     0.031     0.268   0.418935E-01
     0.031     0.276   0.408321E-01
     0.031     0.283   0.397960E-01
     0.031     0.291   0.387848E-01
     0.031     0.299   0.377978E-01
     0.031     0.307   0.368344E-01
     0.031     0.315   0.358940E-01
     0.031     0.323   0.349762E-01
     0.031     0.331   0.340801E-01
     0.031     0.339   0.332055E-01
     0.031     0.346   0.323517E-01
     0.031     0.354   0.315182E-01
     0.031     0.362   0.307045E-01
     0.031     0.370   0.299103E-01
     0.031     0.378   0.291347E-01
     0.031     0.386   0.283777E-01
     0.031     0.394   0.276384E-01
     0.031     0.402   0.269168E-01
     0.031     0.409   0.262120E-01
     0.031     0.417   0.255240E-01
     0.031     0.425   0.248521E-01
     0.031     0.433   0.241960E-01
     0.031     0.441   0.235553E-01
     0.031     0.449   0.229296E-01
     0.031     0.457   0.223184E-01
     0.031     0.465   0.217216E-01
     0.031     0.472   0.211386E-01
     0.031     0.480   0.205692E-01
     0.031     0.488   0.200129E-01
     0.031     0.496   0.194695E-01
     0.031     0.504   0.189385E-01
     0.031     0.512   0.184198E-01
     0.031     0.520   0.179129E-01
     0.031     0.528   0.174176E-01
     0.031     0.535   0.169335E-01
     0.031     0.543   0.164604E-01
     0.031     0.551   0.159978E-01
     0.031     0.559   0.155458E-01
     0.031     0.567   0.151037E-01
     0.031     0.575   0.146716E-01
     0.031     0.583   0.142489E-01
     0.031     0.591   0.138356E-01
     0.031     0.598   0.134312E-01
     0.031     0.606   0.130357E-01
     0.031     0.614   0.126487E-01
     0.031     0.622   0.122700E-01
     0.031     0.630   0.118993E-01
     0.031     0.638   0.115365E-01
     0.031     0.646   0.111812E-01
     0.031     0.654   0.108334E-01
     0.031     0.661   0.104927E-01
     0.031     0.669   0.101589E-01
     0.031     0.677   0.983182E-02
     0.031     0.685   0.951134E-02
     0.031     0.693   0.919706E-02
     0.031     0.701   0.888901E-02
     0.031     0.709   0.858676E-02
     0.031     0.717   0.829033E-02
     0.031     0.724   0.799934E-02
     0.031     0.732   0.771379E-02
     0.031     0.740   0.743330E-02
     0.031     0.748   0.715788E-02
     0.031     0.756   0.688717E-02
     0.031     0.764   0.662118E-02
     0.031     0.772   0.635954E-02
     0.031     0.780   0.610227E-02
     0.031     0.787   0.584902E-02
     0.031     0.795   0.559980E-02
     0.031     0.803   0.535428E-02
     0.031     0.811   0.511246E-02
     0.031     0.819   0.487401E-02
     0.031     0.827   0.463894E-02
     0.031     0.835   0.440694E-02
     0.031     0.843   0.417800E-02
     0.031     0.850   0.395183E-02
     0.031     0.858   0.372840E-02
     0.031     0.866   0.350746E-02
     0.031     0.874   0.328895E-02
     0.031     0.882   0.307263E-02
     0.031     0.890   0.285845E-02
     0.031     0.898   0.264618E-02
     0.031     0.906   0.243575E-02
     0.031     0.913   0.222695E-02
     0.031     0.921   0.201970E-02
     0.031     0.929   0.181380E-02
     0.031     0.937   0.160917E-02
     0.031     0.945   0.140561E-02
     0.031     0.953   0.120304E-02
     0.031     0.961   0.100127E-02
     0.031     0.969   0.800199E-03
     0.031     0.976   0.599665E-03
     0.031     0.984   0.399552E-03
     0.031     0.992   0.199706E-03
     0.031     1.000    0.00000    
     0.039     0.000   0.123370    
     0.039     0.008   0.120329    
     0.039     0.016   0.117362    
     0.039     0.024   0.114467    
     0.039     0.031   0.111642    
     0.039     0.039   0.108885    
     0.039     0.047   0.106195    
     0.039     0.055   0.103570    
     0.039     0.063   0.101009    
     0.039     0.071   0.985098E-01
     0.039     0.079   0.960708E-01
     0.039     0.087   0.936908E-01
     0.039     0.094   0.913684E-01
     0.039     0.102   0.891021E-01
     0.039     0.110   0.868905E-01
     0.039     0.118   0.847324E-01
     0.039     0.126   0.826264E-01
     0.039     0.134   0.805712E-01
     0.039     0.142   0.785656E-01
     0.039     0.150   0.766084E-01
     0.039     0.157   0.746985E-01
     0.039     0.165   0.728345E-01
     0.039     0.173   0.710156E-01
     0.039     0.181   0.692404E-01
     0.039     0.189   0.675081E-01
     0.039     0.197   0.658174E-01
     0.039     0.205   0.641675E-01
     0.039     0.213   0.625572E-01
     0.039     0.220   0.609858E-01
     0.039     0.228   0.594520E-01
     0.039     0.236   0.579552E-01
     0.039     0.244   0.564943E-01
     0.039     0.252   0.550686E-01
     0.039     0.260   0.536769E-01
     0.039     0.268   0.523188E-01
     0.039     0.276   0.509932E-01
     0.039     0.283   0.496994E-01
     0.039     0.291   0.484365E-01
     0.039     0.299   0.472039E-01
     0.039     0.307   0.460007E-01
     0.039     0.315   0.448264E-01
     0.039     0.323   0.436800E-01
     0.039     0.331   0.425611E-01
     0.039     0.339   0.414687E-01
     0.039     0.346   0.404025E-01
     0.039     0.354   0.393616E-01
     0.039     0.362   0.383455E-01
     0.039     0.370   0.373534E-01
     0.039     0.378   0.363850E-01
     0.039     0.386   0.354394E-01
     0.039     0.394   0.345164E-01
     0.039     0.402   0.336150E-01
     0.039     0.409   0.327350E-01
     0.039     0.417   0.318756E-01
     0.039     0.425   0.310366E-01
     0.039     0.433   0.302172E-01
     0.039     0.441   0.294171E-01
     0.039     0.449   0.286356E-01
     0.039     0.457   0.278725E-01
     0.039     0.465   0.271270E-01
     0.039     0.472   0.263991E-01
     0.039     0.480   0.256878E-01
     0.039     0.488   0.249932E-01
     0.039     0.496   0.243145E-01
     0.039     0.504   0.236515E-01
     0.039     0.512   0.230036E-01
     0.039     0.520   0.223706E-01
     0.039     0.528   0.217519E-01
     0.039     0.535   0.211475E-01
     0.039     0.543   0.205565E-01
     0.039     0.551   0.199790E-01
     0.039     0.559   0.194143E-01
     0.039     0.567   0.188624E-01
     0.039     0.575   0.183226E-01
     0.039     0.583   0.177948E-01
     0.039     0.591   0.172785E-01
     0.039     0.598   0.167737E-01
     0.039     0.606   0.162796E-01
     0.039     0.614   0.157964E-01
     0.039     0.622   0.153234E-01
     0.039     0.630   0.148605E-01
     0.039     0.638   0.144073E-01
     0.039     0.646   0.139638E-01
     0.039     0.654   0.135293E-01
     0.039     0.661   0.131038E-01
     0.039     0.669   0.126869E-01
     0.039     0.677   0.122786E-01
     0.039     0.685   0.118782E-01
     0.039     0.693   0.114858E-01
     0.039     0.701   0.111010E-01
     0.039     0.709   0.107237E-01
     0.039     0.717   0.103533E-01
     0.039     0.724   0.999006E-02
     0.039     0.732   0.963332E-02
     0.039     0.740   0.928315E-02
     0.039     0.748   0.893908E-02
     0.039     0.756   0.860112E-02
     0.039     0.764   0.826881E-02
     0.039     0.772   0.794218E-02
     0.039     0.780   0.762078E-02
     0.039     0.787   0.730461E-02
     0.039     0.795   0.699327E-02
     0.039     0.803   0.668675E-02
     0.039     0.811   0.638465E-02
     0.039     0.819   0.608697E-02
     0.039     0.827   0.579331E-02
     0.039     0.835   0.550366E-02
     0.039     0.843   0.521767E-02
     0.039     0.850   0.493529E-02
     0.039     0.858   0.465619E-02
     0.039     0.866   0.438033E-02
     0.039     0.874   0.410738E-02
     0.039     0.882   0.383729E-02
     0.039     0.890   0.356976E-02
     0.039     0.898   0.330471E-02
     0.039     0.906   0.304187E-02
     0.039     0.913   0.278115E-02
     0.039     0.921   0.252228E-02
     0.039     0.929   0.226518E-02
     0.039     0.937   0.200960E-02
     0.039     0.945   0.175541E-02
     0.039     0.953   0.150240E-02
     0.039     0.961   0.125044E-02
     0.039     0.969   0.999322E-03
     0.039     0.976   0.748900E-03
     0.039     0.984   0.498978E-03
     0.039     0.992   0.249406E-03
     0.039     1.000    0.00000    
     0.047     0.000   0.147877    
     0.047     0.008   0.144233    
     0.047     0.016   0.140676    
     0.047     0.024   0.137206    
     0.047     0.031   0.133820    
     0.047     0.039   0.130516    
     0.047     0.047   0.127291    
     0.047     0.055   0.124145    
     0.047     0.063   0.121075    
     0.047     0.071   0.118079    
     0.047     0.079   0.115156    
     0.047     0.087   0.112303    
     0.047     0.094   0.109519    
     0.047     0.102   0.106802    
     0.047     0.110   0.104152    
     0.047     0.118   0.101565    
     0.047     0.126   0.990403E-01
     0.047     0.134   0.965769E-01
     0.047     0.142   0.941728E-01
     0.047     0.150   0.918269E-01
     0.047     0.157   0.895375E-01
     0.047     0.165   0.873033E-01
     0.047     0.173   0.851230E-01
     0.047     0.181   0.829952E-01
     0.047     0.189   0.809187E-01
     0.047     0.197   0.788922E-01
     0.047     0.205   0.769145E-01
     0.047     0.213   0.749844E-01
     0.047     0.220   0.731007E-01
     0.047     0.228   0.712624E-01
     0.047     0.236   0.694681E-01
     0.047     0.244   0.677171E-01
     0.047     0.252   0.660080E-01
     0.047     0.260   0.643401E-01
     0.047     0.268   0.627120E-01
     0.047     0.276   0.611232E-01
     0.047     0.283   0.595722E-01
     0.047     0.291   0.580586E-01
     0.047     0.299   0.565810E-01
     0.047     0.307   0.551390E-01
     0.047     0.315   0.537312E-01
     0.047     0.323   0.523572E-01
     0.047     0.331   0.510159E-01
     0.047     0.339   0.497067E-01
     0.047     0.346   0.484285E-01
     0.047     0.354   0.471809E-01
     0.047     0.362   0.459628E-01
     0.047     0.370   0.447739E-01
     0.047     0.378   0.436129E-01
     0.047     0.386   0.424797E-01
     0.047     0.394   0.413730E-01
     0.047     0.402   0.402928E-01
     0.047     0.409   0.392378E-01
     0.047     0.417   0.382079E-01
     0.047     0.425   0.372020E-01
     0.047     0.433   0.362200E-01
     0.047     0.441   0.352608E-01
     0.047     0.449   0.343242E-01
     0.047     0.457   0.334094E-01
     0.047     0.465   0.325160E-01
     0.047     0.472   0.316432E-01
     0.047     0.480   0.307909E-01
     0.047     0.488   0.299581E-01