Title="Temperature Data"
Variables="X","Y","T"
 
Zone I=   100, J=   100, F=POINT
     0.000     0.000    0.00000    
     0.000     0.010    0.00000    
     0.000     0.020    0.00000    
     0.000     0.030    0.00000    
     0.000     0.040    0.00000    
     0.000     0.051    0.00000    
     0.000     0.061    0.00000    
     0.000     0.071    0.00000    
     0.000     0.081    0.00000    
     0.000     0.091    0.00000    
     0.000     0.101    0.00000    
     0.000     0.111    0.00000    
     0.000     0.121    0.00000    
     0.000     0.131    0.00000    
     0.000     0.141    0.00000    
     0.000     0.152    0.00000    
     0.000     0.162    0.00000    
     0.000     0.172    0.00000    
     0.000     0.182    0.00000    
     0.000     0.192    0.00000    
     0.000     0.202    0.00000    
     0.000     0.212    0.00000    
     0.000     0.222    0.00000    
     0.000     0.232    0.00000    
     0.000     0.242    0.00000    
     0.000     0.253    0.00000    
     0.000     0.263    0.00000    
     0.000     0.273    0.00000    
     0.000     0.283    0.00000    
     0.000     0.293    0.00000    
     0.000     0.303    0.00000    
     0.000     0.313    0.00000    
     0.000     0.323    0.00000    
     0.000     0.333    0.00000    
     0.000     0.343    0.00000    
     0.000     0.354    0.00000    
     0.000     0.364    0.00000    
     0.000     0.374    0.00000    
     0.000     0.384    0.00000    
     0.000     0.394    0.00000    
     0.000     0.404    0.00000    
     0.000     0.414    0.00000    
     0.000     0.424    0.00000    
     0.000     0.434    0.00000    
     0.000     0.444    0.00000    
     0.000     0.455    0.00000    
     0.000     0.465    0.00000    
     0.000     0.475    0.00000    
     0.000     0.485    0.00000    
     0.000     0.495    0.00000    
     0.000     0.505    0.00000    
     0.000     0.515    0.00000    
     0.000     0.525    0.00000    
     0.000     0.535    0.00000    
     0.000     0.545    0.00000    
     0.000     0.556    0.00000    
     0.000     0.566    0.00000    
     0.000     0.576    0.00000    
     0.000     0.586    0.00000    
     0.000     0.596    0.00000    
     0.000     0.606    0.00000    
     0.000     0.616    0.00000    
     0.000     0.626    0.00000    
     0.000     0.636    0.00000    
     0.000     0.646    0.00000    
     0.000     0.657    0.00000    
     0.000     0.667    0.00000    
     0.000     0.677    0.00000    
     0.000     0.687    0.00000    
     0.000     0.697    0.00000    
     0.000     0.707    0.00000    
     0.000     0.717    0.00000    
     0.000     0.727    0.00000    
     0.000     0.737    0.00000    
     0.000     0.747    0.00000    
     0.000     0.758    0.00000    
     0.000     0.768    0.00000    
     0.000     0.778    0.00000    
     0.000     0.788    0.00000    
     0.000     0.798    0.00000    
     0.000     0.808    0.00000    
     0.000     0.818    0.00000    
     0.000     0.828    0.00000    
     0.000     0.838    0.00000    
     0.000     0.848    0.00000    
     0.000     0.859    0.00000    
     0.000     0.869    0.00000    
     0.000     0.879    0.00000    
     0.000     0.889    0.00000    
     0.000     0.899    0.00000    
     0.000     0.909    0.00000    
     0.000     0.919    0.00000    
     0.000     0.929    0.00000    
     0.000     0.939    0.00000    
     0.000     0.949    0.00000    
     0.000     0.960    0.00000    
     0.000     0.970    0.00000    
     0.000     0.980    0.00000    
     0.000     0.990    0.00000    
     0.000     1.000    0.00000    
     0.010     0.000   0.317279E-01
     0.010     0.010    0.00000    
     0.010     0.020    0.00000    
     0.010     0.030    0.00000    
     0.010     0.040    0.00000    
     0.010     0.051    0.00000    
     0.010     0.061    0.00000    
     0.010     0.071    0.00000    
     0.010     0.081    0.00000    
     0.010     0.091    0.00000    
     0.010     0.101    0.00000    
     0.010     0.111    0.00000    
     0.010     0.121    0.00000    
     0.010     0.131    0.00000    
     0.010     0.141    0.00000    
     0.010     0.152    0.00000    
     0.010     0.162    0.00000    
     0.010     0.172    0.00000    
     0.010     0.182    0.00000    
     0.010     0.192    0.00000    
     0.010     0.202    0.00000    
     0.010     0.212    0.00000    
     0.010     0.222    0.00000    
     0.010     0.232    0.00000    
     0.010     0.242    0.00000    
     0.010     0.253    0.00000    
     0.010     0.263    0.00000    
     0.010     0.273    0.00000    
     0.010     0.283    0.00000    
     0.010     0.293    0.00000    
     0.010     0.303    0.00000    
     0.010     0.313    0.00000    
     0.010     0.323    0.00000    
     0.010     0.333    0.00000    
     0.010     0.343    0.00000    
     0.010     0.354    0.00000    
     0.010     0.364    0.00000    
     0.010     0.374    0.00000    
     0.010     0.384    0.00000    
     0.010     0.394    0.00000    
     0.010     0.404    0.00000    
     0.010     0.414    0.00000    
     0.010     0.424    0.00000    
     0.010     0.434    0.00000    
     0.010     0.444    0.00000    
     0.010     0.455    0.00000    
     0.010     0.465    0.00000    
     0.010     0.475    0.00000    
     0.010     0.485    0.00000    
     0.010     0.495    0.00000    
     0.010     0.505    0.00000    
     0.010     0.515    0.00000    
     0.010     0.525    0.00000    
     0.010     0.535    0.00000    
     0.010     0.545    0.00000    
     0.010     0.556    0.00000    
     0.010     0.566    0.00000    
     0.010     0.576    0.00000    
     0.010     0.586    0.00000    
     0.010     0.596    0.00000    
     0.010     0.606    0.00000    
     0.010     0.616    0.00000    
     0.010     0.626    0.00000    
     0.010     0.636    0.00000    
     0.010     0.646    0.00000    
     0.010     0.657    0.00000    
     0.010     0.667    0.00000    
     0.010     0.677    0.00000    
     0.010     0.687    0.00000    
     0.010     0.697    0.00000    
     0.010     0.707    0.00000    
     0.010     0.717    0.00000    
     0.010     0.727    0.00000    
     0.010     0.737    0.00000    
     0.010     0.747    0.00000    
     0.010     0.758    0.00000    
     0.010     0.768    0.00000    
     0.010     0.778    0.00000    
     0.010     0.788    0.00000    
     0.010     0.798    0.00000    
     0.010     0.808    0.00000    
     0.010     0.818    0.00000    
     0.010     0.828    0.00000    
     0.010     0.838    0.00000    
     0.010     0.848    0.00000    
     0.010     0.859    0.00000    
     0.010     0.869    0.00000    
     0.010     0.879    0.00000    
     0.010     0.889    0.00000    
     0.010     0.899    0.00000    
     0.010     0.909    0.00000    
     0.010     0.919    0.00000    
     0.010     0.929    0.00000    
     0.010     0.939    0.00000    
     0.010     0.949    0.00000    
     0.010     0.960    0.00000    
     0.010     0.970    0.00000    
     0.010     0.980    0.00000    
     0.010     0.990    0.00000    
     0.010     1.000    0.00000    
     0.020     0.000   0.634239E-01
     0.020     0.010    0.00000    
     0.020     0.020    0.00000    
     0.020     0.030    0.00000    
     0.020     0.040    0.00000    
     0.020     0.051    0.00000    
     0.020     0.061    0.00000    
     0.020     0.071    0.00000    
     0.020     0.081    0.00000    
     0.020     0.091    0.00000    
     0.020     0.101    0.00000    
     0.020     0.111    0.00000    
     0.020     0.121    0.00000    
     0.020     0.131    0.00000    
     0.020     0.141    0.00000    
     0.020     0.152    0.00000    
     0.020     0.162    0.00000    
     0.020     0.172    0.00000    
     0.020     0.182    0.00000    
     0.020     0.192    0.00000    
     0.020     0.202    0.00000    
     0.020     0.212    0.00000    
     0.020     0.222    0.00000    
     0.020     0.232    0.00000    
     0.020     0.242    0.00000    
     0.020     0.253    0.00000    
     0.020     0.263    0.00000    
     0.020     0.273    0.00000    
     0.020     0.283    0.00000    
     0.020     0.293    0.00000    
     0.020     0.303    0.00000    
     0.020     0.313    0.00000    
     0.020     0.323    0.00000    
     0.020     0.333    0.00000    
     0.020     0.343    0.00000    
     0.020     0.354    0.00000    
     0.020     0.364    0.00000    
     0.020     0.374    0.00000    
     0.020     0.384    0.00000    
     0.020     0.394    0.00000    
     0.020     0.404    0.00000    
     0.020     0.414    0.00000    
     0.020     0.424    0.00000    
     0.020     0.434    0.00000    
     0.020     0.444    0.00000    
     0.020     0.455    0.00000    
     0.020     0.465    0.00000    
     0.020     0.475    0.00000    
     0.020     0.485    0.00000    
     0.020     0.495    0.00000    
     0.020     0.505    0.00000    
     0.020     0.515    0.00000    
     0.020     0.525    0.00000    
     0.020     0.535    0.00000    
     0.020     0.545    0.00000    
     0.020     0.556    0.00000    
     0.020     0.566    0.00000    
     0.020     0.576    0.00000    
     0.020     0.586    0.00000    
     0.020     0.596    0.00000    
     0.020     0.606    0.00000    
     0.020     0.616    0.00000    
     0.020     0.626    0.00000    
     0.020     0.636    0.00000    
     0.020     0.646    0.00000    
     0.020     0.657    0.00000    
     0.020     0.667    0.00000    
     0.020     0.677    0.00000    
     0.020     0.687    0.00000    
     0.020     0.697    0.00000    
     0.020     0.707    0.00000    
     0.020     0.717    0.00000    
     0.020     0.727    0.00000    
     0.020     0.737    0.00000    
     0.020     0.747    0.00000    
     0.020     0.758    0.00000    
     0.020     0.768    0.00000    
     0.020     0.778    0.00000    
     0.020     0.788    0.00000    
     0.020     0.798    0.00000    
     0.020     0.808    0.00000    
     0.020     0.818    0.00000    
     0.020     0.828    0.00000    
     0.020     0.838    0.00000    
     0.020     0.848    0.00000    
     0.020     0.859    0.00000    
     0.020     0.869    0.00000    
     0.020     0.879    0.00000    
     0.020     0.889    0.00000    
     0.020     0.899    0.00000    
     0.020     0.909    0.00000    
     0.020     0.919    0.00000    
     0.020     0.929    0.00000    
     0.020     0.939    0.00000    
     0.020     0.949    0.00000    
     0.020     0.960    0.00000    
     0.020     0.970    0.00000    
     0.020     0.980    0.00000    
     0.020     0.990    0.00000    
     0.020     1.000    0.00000    
     0.030     0.000   0.950560E-01
     0.030     0.010    0.00000    
     0.030     0.020    0.00000    
     0.030     0.030    0.00000    
     0.030     0.040    0.00000    
     0.030     0.051    0.00000    
     0.030     0.061    0.00000    
     0.030     0.071    0.00000    
     0.030     0.081    0.00000    
     0.030     0.091    0.00000    
     0.030     0.101    0.00000    
     0.030     0.111    0.00000    
     0.030     0.121    0.00000    
     0.030     0.131    0.00000    
     0.030     0.141    0.00000    
     0.030     0.152    0.00000    
     0.030     0.162    0.00000    
     0.030     0.172    0.00000    
     0.030     0.182    0.00000    
     0.030     0.192    0.00000    
     0.030     0.202    0.00000    
     0.030     0.212    0.00000    
     0.030     0.222    0.00000    
     0.030     0.232    0.00000    
     0.030     0.242    0.00000    
     0.030     0.253    0.00000    
     0.030     0.263    0.00000    
     0.030     0.273    0.00000    
     0.030     0.283    0.00000    
     0.030     0.293    0.00000    
     0.030     0.303    0.00000    
     0.030     0.313    0.00000    
     0.030     0.323    0.00000    
     0.030     0.333    0.00000    
     0.030     0.343    0.00000    
     0.030     0.354    0.00000    
     0.030     0.364    0.00000    
     0.030     0.374    0.00000    
     0.030     0.384    0.00000    
     0.030     0.394    0.00000    
     0.030     0.404    0.00000    
     0.030     0.414    0.00000    
     0.030     0.424    0.00000    
     0.030     0.434    0.00000    
     0.030     0.444    0.00000    
     0.030     0.455    0.00000    
     0.030     0.465    0.00000    
     0.030     0.475    0.00000    
     0.030     0.485    0.00000    
     0.030     0.495    0.00000    
     0.030     0.505    0.00000    
     0.030     0.515    0.00000    
     0.030     0.525    0.00000    
     0.030     0.535    0.00000    
     0.030     0.545    0.00000    
     0.030     0.556    0.00000    
     0.030     0.566    0.00000    
     0.030     0.576    0.00000    
     0.030     0.586    0.00000    
     0.030     0.596    0.00000    
     0.030     0.606    0.00000    
     0.030     0.616    0.00000    
     0.030     0.626    0.00000    
     0.030     0.636    0.00000    
     0.030     0.646    0.00000    
     0.030     0.657    0.00000    
     0.030     0.667    0.00000    
     0.030     0.677    0.00000    
     0.030     0.687    0.00000    
     0.030     0.697    0.00000    
     0.030     0.707    0.00000    
     0.030     0.717    0.00000    
     0.030     0.727    0.00000    
     0.030     0.737    0.00000    
     0.030     0.747    0.00000    
     0.030     0.758    0.00000    
     0.030     0.768    0.00000    
     0.030     0.778    0.00000    
     0.030     0.788    0.00000    
     0.030     0.798    0.00000    
     0.030     0.808    0.00000    
     0.030     0.818    0.00000    
     0.030     0.828    0.00000    
     0.030     0.838    0.00000    
     0.030     0.848    0.00000    
     0.030     0.859    0.00000    
     0.030     0.869    0.00000    
     0.030     0.879    0.00000    
     0.030     0.889    0.00000    
     0.030     0.899    0.00000    
     0.030     0.909    0.00000    
     0.030     0.919    0.00000    
     0.030     0.929    0.00000    
     0.030     0.939    0.00000    
     0.030     0.949    0.00000    
     0.030     0.960    0.00000    
     0.030     0.970    0.00000    
     0.030     0.980    0.00000    
     0.030     0.990    0.00000    
     0.030     1.000    0.00000    
     0.040     0.000   0.126592    
     0.040     0.010    0.00000    
     0.040     0.020    0.00000    
     0.040     0.030    0.00000    
     0.040     0.040    0.00000    
     0.040     0.051    0.00000    
     0.040     0.061    0.00000    
     0.040     0.071    0.00000    
     0.040     0.081    0.00000    
     0.040     0.091    0.00000    
     0.040     0.101    0.00000    
     0.040     0.111    0.00000    
     0.040     0.121    0.00000    
     0.040     0.131    0.00000    
     0.040     0.141    0.00000    
     0.040     0.152    0.00000    
     0.040     0.162    0.00000    
     0.040     0.172    0.00000    
     0.040     0.182    0.00000    
     0.040     0.192    0.00000    
     0.040     0.202    0.00000    
     0.040     0.212    0.00000    
     0.040     0.222    0.00000    
     0.040     0.232    0.00000    
     0.040     0.242    0.00000    
     0.040     0.253    0.00000    
     0.040     0.263    0.00000    
     0.040     0.273    0.00000    
     0.040     0.283    0.00000    
     0.040     0.293    0.00000    
     0.040     0.303    0.00000    
     0.040     0.313    0.00000    
     0.040     0.323    0.00000    
     0.040     0.333    0.00000    
     0.040     0.343    0.00000    
     0.040     0.354    0.00000    
     0.040     0.364    0.00000    
     0.040     0.374    0.00000    
     0.040     0.384    0.00000    
     0.040     0.394    0.00000    
     0.040     0.404    0.00000    
     0.040     0.414    0.00000    
     0.040     0.424    0.00000    
     0.040     0.434    0.00000    
     0.040     0.444    0.00000    
     0.040     0.455    0.00000    
     0.040     0.465    0.00000    
     0.040     0.475    0.00000    
     0.040     0.485    0.00000    
     0.040     0.495    0.00000    
     0.040     0.505    0.00000    
     0.040     0.515    0.00000    
     0.040     0.525    0.00000    
     0.040     0.535    0.00000    
     0.040     0.545    0.00000    
     0.040     0.556    0.00000    
     0.040     0.566    0.00000    
     0.040     0.576    0.00000    
     0.040     0.586    0.00000    
     0.040     0.596    0.00000    
     0.040     0.606    0.00000    
     0.040     0.616    0.00000    
     0.040     0.626    0.00000    
     0.040     0.636    0.00000    
     0.040     0.646    0.00000    
     0.040     0.657    0.00000    
     0.040     0.667    0.00000    
     0.040     0.677    0.00000    
     0.040     0.687    0.00000    
     0.040     0.697    0.00000    
     0.040     0.707    0.00000    
     0.040     0.717    0.00000    
     0.040     0.727    0.00000    
     0.040     0.737    0.00000    
     0.040     0.747    0.00000    
     0.040     0.758    0.00000    
     0.040     0.768    0.00000    
     0.040     0.778    0.00000    
     0.040     0.788    0.00000    
     0.040     0.798    0.00000    
     0.040     0.808    0.00000    
     0.040     0.818    0.00000    
     0.040     0.828    0.00000    
     0.040     0.838    0.00000    
     0.040     0.848    0.00000    
     0.040     0.859    0.00000    
     0.040     0.869    0.00000    
     0.040     0.879    0.00000    
     0.040     0.889    0.00000    
     0.040     0.899    0.00000    
     0.040     0.909    0.00000    
     0.040     0.919    0.00000    
     0.040     0.929    0.00000    
     0.040     0.939    0.00000    
     0.040     0.949    0.00000    
     0.040     0.960    0.00000    
     0.040     0.970    0.00000    
     0.040     0.980    0.00000    
     0.040     0.990    0.00000    
     0.040     1.000    0.00000    
     0.051     0.000   0.158001    
     0.051     0.010    0.00000    
     0.051     0.020    0.00000    
     0.051     0.030    0.00000    
     0.051     0.040    0.00000    
     0.051     0.051    0.00000    
     0.051     0.061    0.00000    
     0.051     0.071    0.00000    
     0.051     0.081    0.00000    
     0.051     0.091    0.00000    
     0.051     0.101    0.00000    
     0.051     0.111    0.00000    
     0.051     0.121    0.00000    
     0.051     0.131    0.00000    
     0.051     0.141    0.00000    
     0.051     0.152    0.00000    
     0.051     0.162    0.00000    
     0.051     0.172    0.00000    
     0.051     0.182    0.00000    
     0.051     0.192    0.00000    
     0.051     0.202    0.00000    
     0.051     0.212    0.00000    
     0.051     0.222    0.00000    
     0.051     0.232    0.00000    
     0.051     0.242    0.00000    
     0.051     0.253    0.00000    
     0.051     0.263    0.00000    
     0.051     0.273    0.00000    
     0.051     0.283    0.00000    
     0.051     0.293    0.00000    
     0.051     0.303    0.00000    
     0.051     0.313    0.00000    
     0.051     0.323    0.00000    
     0.051     0.333    0.00000    
     0.051     0.343    0.00000    
     0.051     0.354    0.00000    
     0.051     0.364    0.00000    
     0.051     0.374    0.00000    
     0.051     0.384    0.00000    
     0.051     0.394    0.00000    
     0.051     0.404    0.00000    
     0.051     0.414    0.00000    
     0.051     0.424    0.00000    
     0.051     0.434    0.00000    
     0.051     0.444    0.00000    
     0.051     0.455    0.00000    
     0.051     0.465    0.00000    
     0.051     0.475    0.00000    
     0.051     0.485    0.00000    
     0.051     0.495    0.00000    
     0.051     0.505    0.00000    
     0.051     0.515    0.00000    
     0.051     0.525    0.00000    
     0.051     0.535    0.00000    
     0.051     0.545    0.00000    
     0.051     0.556    0.00000    
     0.051     0.566    0.00000    
     0.051     0.576    0.00000    
     0.051     0.586    0.00000    
     0.051     0.596    0.00000    
     0.051     0.606    0.00000    
     0.051     0.616    0.00000    
     0.051     0.626    0.00000    
     0.051     0.636    0.00000    
     0.051     0.646    0.00000    
     0.051     0.657    0.00000    
     0.051     0.667    0.00000    
     0.051     0.677    0.00000    
     0.051     0.687    0.00000    
     0.051     0.697    0.00000    
     0.051     0.707    0.00000    
     0.051     0.717    0.00000    
     0.051     0.727    0.00000    
     0.051     0.737    0.00000    
     0.051     0.747    0.00000    
     0.051     0.758    0.00000    
     0.051     0.768    0.00000    
     0.051     0.778    0.00000    
     0.051     0.788    0.00000    
     0.051     0.798    0.00000    
     0.051     0.808    0.00000    
     0.051     0.818    0.00000    
     0.051     0.828    0.00000    
     0.051     0.838    0.00000    
     0.051     0.848    0.00000    
     0.051     0.859    0.00000    
     0.051     0.869    0.00000    
     0.051     0.879    0.00000    
     0.051     0.889    0.00000    
     0.051     0.899    0.00000    
     0.051     0.909    0.00000    
     0.051     0.919    0.00000    
     0.051     0.929    0.00000    
     0.051     0.939    0.00000    
     0.051     0.949    0.00000    
     0.051     0.960    0.00000    
     0.051     0.970    0.00000    
     0.051     0.980    0.00000    
     0.051     0.990    0.00000    
     0.051     1.000    0.00000    
     0.061     0.000   0.189251    
     0.061     0.010    0.00000    
     0.061     0.020    0.00000    
     0.061     0.030    0.00000    
     0.061     0.040    0.00000    
     0.061     0.051    0.00000    
     0.061     0.061    0.00000    
     0.061     0.071    0.00000    
     0.061     0.081    0.00000    
     0.061     0.091    0.00000    
     0.061     0.101    0.00000    
     0.061     0.111    0.00000    
     0.061     0.121    0.00000    
     0.061     0.131    0.00000    
     0.061     0.141    0.00000    
     0.061     0.152    0.00000    
     0.061     0.162    0.00000    
     0.061     0.172    0.00000    
     0.061     0.182    0.00000    
     0.061     0.192    0.00000    
     0.061     0.202    0.00000    
     0.061     0.212    0.00000    
     0.061     0.222    0.00000    
     0.061     0.232    0.00000    
     0.061     0.242    0.00000    
     0.061     0.253    0.00000    
     0.061     0.263    0.00000    
     0.061     0.273    0.00000    
     0.061     0.283    0.00000    
     0.061     0.293    0.00000    
     0.061     0.303    0.00000    
     0.061     0.313    0.00000    
     0.061     0.323    0.00000    
     0.061     0.333    0.00000    
     0.061     0.343    0.00000    
     0.061     0.354    0.00000    
     0.061     0.364    0.00000    
     0.061     0.374    0.00000    
     0.061     0.384    0.00000    
     0.061     0.394    0.00000    
     0.061     0.404    0.00000    
     0.061     0.414    0.00000    
     0.061     0.424    0.00000    
     0.061     0.434    0.00000    
     0.061     0.444    0.00000    
     0.061     0.455    0.00000    
     0.061     0.465    0.00000    
     0.061     0.475    0.00000    
     0.061     0.485    0.00000    
     0.061     0.495    0.00000    
     0.061     0.505    0.00000    
     0.061     0.515    0.00000    
     0.061     0.525    0.00000    
     0.061     0.535    0.00000    
     0.061     0.545    0.00000    
     0.061     0.556    0.00000    
     0.061     0.566    0.00000    
     0.061     0.576    0.00000    
     0.061     0.586    0.00000    
     0.061     0.596    0.00000    
     0.061     0.606    0.00000    
     0.061     0.616    0.00000    
     0.061     0.626    0.00000    
     0.061     0.636    0.00000    
     0.061     0.646    0.00000    
     0.061     0.657    0.00000    
     0.061     0.667    0.00000    
     0.061     0.677    0.00000    
     0.061     0.687    0.00000    
     0.061     0.697    0.00000    
     0.061     0.707    0.00000    
     0.061     0.717    0.00000    
     0.061     0.727    0.00000    
     0.061     0.737    0.00000    
     0.061     0.747    0.00000    
     0.061     0.758    0.00000    
     0.061     0.768    0.00000    
     0.061     0.778    0.00000    
     0.061     0.788    0.00000    
     0.061     0.798    0.00000    
     0.061     0.808    0.00000    
     0.061     0.818    0.00000    
     0.061     0.828    0.00000    
     0.061     0.838    0.00000    
     0.061     0.848    0.00000    
     0.061     0.859    0.00000    
     0.061     0.869    0.00000    
     0.061     0.879    0.00000    
     0.061     0.889    0.00000    
     0.061     0.899    0.00000    
     0.061     0.909    0.00000    
     0.061     0.919    0.00000    
     0.061     0.929    0.00000    
     0.061     0.939    0.00000    
     0.061     0.949    0.00000    
     0.061     0.960    0.00000    
     0.061     0.970    0.00000    
     0.061     0.980    0.00000    
     0.061     0.990    0.00000    
     0.061     1.000    0.00000    
     0.071     0.000   0.220311    
     0.071     0.010    0.00000    
     0.071     0.020    0.00000    
     0.071     0.030    0.00000    
     0.071     0.040    0.00000    
     0.071     0.051    0.00000    
     0.071     0.061    0.00000    
     0.071     0.071    0.00000    
     0.071     0.081    0.00000    
     0.071     0.091    0.00000    
     0.071     0.101    0.00000    
     0.071     0.111    0.00000    
     0.071     0.121    0.00000    
     0.071     0.131    0.00000    
     0.071     0.141    0.00000    
     0.071     0.152    0.00000    
     0.071     0.162    0.00000    
     0.071     0.172    0.00000    
     0.071     0.182    0.00000    
     0.071     0.192    0.00000    
     0.071     0.202    0.00000    
     0.071     0.212    0.00000    
     0.071     0.222    0.00000    
     0.071     0.232    0.00000    
     0.071     0.242    0.00000    
     0.071     0.253    0.00000    
     0.071     0.263    0.00000    
     0.071     0.273    0.00000    
     0.071     0.283    0.00000    
     0.071     0.293    0.00000    
     0.071     0.303    0.00000    
     0.071     0.313    0.00000    
     0.071     0.323    0.00000    
     0.071     0.333    0.00000    
     0.071     0.343    0.00000    
     0.071     0.354    0.00000    
     0.071     0.364    0.00000    
     0.071     0.374    0.00000    
     0.071     0.384    0.00000    
     0.071     0.394    0.00000    
     0.071     0.404    0.00000    
     0.071     0.414    0.00000    
     0.071     0.424    0.00000    
     0.071     0.434    0.00000    
     0.071     0.444    0.00000    
     0.071     0.455    0.00000    
     0.071     0.465    0.00000    
     0.071     0.475    0.00000    
     0.071     0.485    0.00000    
     0.071     0.495    0.00000    
     0.071     0.505    0.00000    
     0.071     0.515    0.00000    
     0.071     0.525    0.00000    
     0.071     0.535    0.00000    
     0.071     0.545    0.00000    
     0.071     0.556    0.00000    
     0.071     0.566    0.00000    
     0.071     0.576    0.00000    
     0.071     0.586    0.00000    
     0.071     0.596    0.00000    
     0.071     0.606    0.00000    
     0.071     0.616    0.00000    
     0.071     0.626    0.00000    
     0.071     0.636    0.00000    
     0.071     0.646    0.00000    
     0.071     0.657    0.00000    
     0.071     0.667    0.00000    
     0.071     0.677    0.00000    
     0.071     0.687    0.00000    
     0.071     0.697    0.00000    
     0.071     0.707    0.00000    
     0.071     0.717    0.00000    
     0.071     0.727    0.00000    
     0.071     0.737    0.00000    
     0.071     0.747    0.00000    
     0.071     0.758    0.00000    
     0.071     0.768    0.00000    
     0.071     0.778    0.00000    
     0.071     0.788    0.00000    
     0.071     0.798    0.00000    
     0.071     0.808    0.00000    
     0.071     0.818    0.00000    
     0.071     0.828    0.00000    
     0.071     0.838    0.00000    
     0.071     0.848    0.00000    
     0.071     0.859    0.00000    
     0.071     0.869    0.00000    
     0.071     0.879    0.00000    
     0.071     0.889    0.00000    
     0.071     0.899    0.00000    
     0.071     0.909    0.00000    
     0.071     0.919    0.00000    
     0.071     0.929    0.00000    
     0.071     0.939    0.00000    
     0.071     0.949    0.00000    
     0.071     0.960    0.00000    
     0.071     0.970    0.00000    
     0.071     0.980    0.00000    
     0.071     0.990    0.00000    
     0.071     1.000    0.00000    
     0.081     0.000   0.251148    
     0.081     0.010    0.00000    
     0.081     0.020    0.00000    
     0.081     0.030    0.00000    
     0.081     0.040    0.00000    
     0.081     0.051    0.00000    
     0.081     0.061    0.00000    
     0.081     0.071    0.00000    
     0.081     0.081    0.00000    
     0.081     0.091    0.00000    
     0.081     0.101    0.00000    
     0.081     0.111    0.00000    
     0.081     0.121    0.00000    
     0.081     0.131    0.00000    
     0.081     0.141    0.00000    
     0.081     0.152    0.00000    
     0.081     0.162    0.00000    
     0.081     0.172    0.00000    
     0.081     0.182    0.00000    
     0.081     0.192    0.00000    
     0.081     0.202    0.00000    
     0.081     0.212    0.00000    
     0.081     0.222    0.00000    
     0.081     0.232    0.00000    
     0.081     0.242    0.00000    
     0.081     0.253    0.00000    
     0.081     0.263    0.00000    
     0.081     0.273    0.00000    
     0.081     0.283    0.00000    
     0.081     0.293    0.00000    
     0.081     0.303    0.00000    