Title="Temperature Data"
Variables="X","Y","T"
 
Zone I=    64, J=    64, F=POINT
     0.000     0.000    0.00000    
     0.000     0.016    0.00000    
     0.000     0.032    0.00000    
     0.000     0.048    0.00000    
     0.000     0.063    0.00000    
     0.000     0.079    0.00000    
     0.000     0.095    0.00000    
     0.000     0.111    0.00000    
     0.000     0.127    0.00000    
     0.000     0.143    0.00000    
     0.000     0.159    0.00000    
     0.000     0.175    0.00000    
     0.000     0.190    0.00000    
     0.000     0.206    0.00000    
     0.000     0.222    0.00000    
     0.000     0.238    0.00000    
     0.000     0.254    0.00000    
     0.000     0.270    0.00000    
     0.000     0.286    0.00000    
     0.000     0.302    0.00000    
     0.000     0.317    0.00000    
     0.000     0.333    0.00000    
     0.000     0.349    0.00000    
     0.000     0.365    0.00000    
     0.000     0.381    0.00000    
     0.000     0.397    0.00000    
     0.000     0.413    0.00000    
     0.000     0.429    0.00000    
     0.000     0.444    0.00000    
     0.000     0.460    0.00000    
     0.000     0.476    0.00000    
     0.000     0.492    0.00000    
     0.000     0.508    0.00000    
     0.000     0.524    0.00000    
     0.000     0.540    0.00000    
     0.000     0.556    0.00000    
     0.000     0.571    0.00000    
     0.000     0.587    0.00000    
     0.000     0.603    0.00000    
     0.000     0.619    0.00000    
     0.000     0.635    0.00000    
     0.000     0.651    0.00000    
     0.000     0.667    0.00000    
     0.000     0.683    0.00000    
     0.000     0.698    0.00000    
     0.000     0.714    0.00000    
     0.000     0.730    0.00000    
     0.000     0.746    0.00000    
     0.000     0.762    0.00000    
     0.000     0.778    0.00000    
     0.000     0.794    0.00000    
     0.000     0.810    0.00000    
     0.000     0.825    0.00000    
     0.000     0.841    0.00000    
     0.000     0.857    0.00000    
     0.000     0.873    0.00000    
     0.000     0.889    0.00000    
     0.000     0.905    0.00000    
     0.000     0.921    0.00000    
     0.000     0.937    0.00000    
     0.000     0.952    0.00000    
     0.000     0.968    0.00000    
     0.000     0.984    0.00000    
     0.000     1.000    0.00000    
     0.016     0.000   0.498459E-01
     0.016     0.016   0.312158E-01
     0.016     0.032   0.165564E-01
     0.016     0.048   0.737570E-02
     0.016     0.063   0.275450E-02
     0.016     0.079   0.863672E-03
     0.016     0.095   0.228037E-03
     0.016     0.111   0.508569E-04
     0.016     0.127   0.960412E-05
     0.016     0.143   0.153798E-05
     0.016     0.159   0.208868E-06
     0.016     0.175   0.240206E-07
     0.016     0.190   0.233151E-08
     0.016     0.206   0.189941E-09
     0.016     0.222   0.128792E-10
     0.016     0.238   0.718132E-12
     0.016     0.254   0.323626E-13
     0.016     0.270   0.114943E-14
     0.016     0.286   0.309727E-16
     0.016     0.302   0.595103E-18
     0.016     0.317   0.726383E-20
     0.016     0.333   0.423323E-22
     0.016     0.349    0.00000    
     0.016     0.365    0.00000    
     0.016     0.381    0.00000    
     0.016     0.397    0.00000    
     0.016     0.413    0.00000    
     0.016     0.429    0.00000    
     0.016     0.444    0.00000    
     0.016     0.460    0.00000    
     0.016     0.476    0.00000    
     0.016     0.492    0.00000    
     0.016     0.508    0.00000    
     0.016     0.524    0.00000    
     0.016     0.540    0.00000    
     0.016     0.556    0.00000    
     0.016     0.571    0.00000    
     0.016     0.587    0.00000    
     0.016     0.603    0.00000    
     0.016     0.619    0.00000    
     0.016     0.635    0.00000    
     0.016     0.651    0.00000    
     0.016     0.667    0.00000    
     0.016     0.683    0.00000    
     0.016     0.698    0.00000    
     0.016     0.714    0.00000    
     0.016     0.730    0.00000    
     0.016     0.746    0.00000    
     0.016     0.762    0.00000    
     0.016     0.778    0.00000    
     0.016     0.794    0.00000    
     0.016     0.810    0.00000    
     0.016     0.825    0.00000    
     0.016     0.841    0.00000    
     0.016     0.857    0.00000    
     0.016     0.873    0.00000    
     0.016     0.889    0.00000    
     0.016     0.905    0.00000    
     0.016     0.921    0.00000    
     0.016     0.937    0.00000    
     0.016     0.952    0.00000    
     0.016     0.968    0.00000    
     0.016     0.984    0.00000    
     0.016     1.000    0.00000    
     0.032     0.000   0.995678E-01
     0.032     0.016   0.623540E-01
     0.032     0.032   0.330716E-01
     0.032     0.048   0.147331E-01
     0.032     0.063   0.550214E-02
     0.032     0.079   0.172520E-02
     0.032     0.095   0.455507E-03
     0.032     0.111   0.101587E-03
     0.032     0.127   0.191844E-04
     0.032     0.143   0.307214E-05
     0.032     0.159   0.417217E-06
     0.032     0.175   0.479814E-07
     0.032     0.190   0.465722E-08
     0.032     0.206   0.379409E-09
     0.032     0.222   0.257265E-10
     0.032     0.238   0.143448E-11
     0.032     0.254   0.646448E-13
     0.032     0.270   0.229600E-14
     0.032     0.286   0.618683E-16
     0.032     0.302   0.118873E-17
     0.032     0.317   0.145096E-19
     0.032     0.333   0.845595E-22
     0.032     0.349    0.00000    
     0.032     0.365    0.00000    
     0.032     0.381    0.00000    
     0.032     0.397    0.00000    
     0.032     0.413    0.00000    
     0.032     0.429    0.00000    
     0.032     0.444    0.00000    
     0.032     0.460    0.00000    
     0.032     0.476    0.00000    
     0.032     0.492    0.00000    
     0.032     0.508    0.00000    
     0.032     0.524    0.00000    
     0.032     0.540    0.00000    
     0.032     0.556    0.00000    
     0.032     0.571    0.00000    
     0.032     0.587    0.00000    
     0.032     0.603    0.00000    
     0.032     0.619    0.00000    
     0.032     0.635    0.00000    
     0.032     0.651    0.00000    
     0.032     0.667    0.00000    
     0.032     0.683    0.00000    
     0.032     0.698    0.00000    
     0.032     0.714    0.00000    
     0.032     0.730    0.00000    
     0.032     0.746    0.00000    
     0.032     0.762    0.00000    
     0.032     0.778    0.00000    
     0.032     0.794    0.00000    
     0.032     0.810    0.00000    
     0.032     0.825    0.00000    
     0.032     0.841    0.00000    
     0.032     0.857    0.00000    
     0.032     0.873    0.00000    
     0.032     0.889    0.00000    
     0.032     0.905    0.00000    
     0.032     0.921    0.00000    
     0.032     0.937    0.00000    
     0.032     0.952    0.00000    
     0.032     0.968    0.00000    
     0.032     0.984    0.00000    
     0.032     1.000    0.00000    
     0.048     0.000   0.149042    
     0.048     0.016   0.933372E-01
     0.048     0.032   0.495046E-01
     0.048     0.048   0.220538E-01
     0.048     0.063   0.823611E-02
     0.048     0.079   0.258243E-02
     0.048     0.095   0.681844E-03
     0.048     0.111   0.152065E-03
     0.048     0.127   0.287169E-04
     0.048     0.143   0.459865E-05
     0.048     0.159   0.624529E-06
     0.048     0.175   0.718229E-07
     0.048     0.190   0.697135E-08
     0.048     0.206   0.567935E-09
     0.048     0.222   0.385097E-10
     0.048     0.238   0.214726E-11
     0.048     0.254   0.967662E-13
     0.048     0.270   0.343686E-14
     0.048     0.286   0.926101E-16
     0.048     0.302   0.177940E-17
     0.048     0.317   0.217193E-19
     0.048     0.333   0.126576E-21
     0.048     0.349    0.00000    
     0.048     0.365    0.00000    
     0.048     0.381    0.00000    
     0.048     0.397    0.00000    
     0.048     0.413    0.00000    
     0.048     0.429    0.00000    
     0.048     0.444    0.00000    
     0.048     0.460    0.00000    
     0.048     0.476    0.00000    
     0.048     0.492    0.00000    
     0.048     0.508    0.00000    
     0.048     0.524    0.00000    
     0.048     0.540    0.00000    
     0.048     0.556    0.00000    
     0.048     0.571    0.00000    
     0.048     0.587    0.00000    
     0.048     0.603    0.00000    
     0.048     0.619    0.00000    
     0.048     0.635    0.00000    
     0.048     0.651    0.00000    
     0.048     0.667    0.00000    
     0.048     0.683    0.00000    
     0.048     0.698    0.00000    
     0.048     0.714    0.00000    
     0.048     0.730    0.00000    
     0.048     0.746    0.00000    
     0.048     0.762    0.00000    
     0.048     0.778    0.00000    
     0.048     0.794    0.00000    
     0.048     0.810    0.00000    
     0.048     0.825    0.00000    
     0.048     0.841    0.00000    
     0.048     0.857    0.00000    
     0.048     0.873    0.00000    
     0.048     0.889    0.00000    
     0.048     0.905    0.00000    
     0.048     0.921    0.00000    
     0.048     0.937    0.00000    
     0.048     0.952    0.00000    
     0.048     0.968    0.00000    
     0.048     0.984    0.00000    
     0.048     1.000    0.00000    
     0.063     0.000   0.198146    
     0.063     0.016   0.124088    
     0.063     0.032   0.658146E-01
     0.063     0.048   0.293197E-01
     0.063     0.063   0.109496E-01
     0.063     0.079   0.343325E-02
     0.063     0.095   0.906487E-03
     0.063     0.111   0.202165E-03
     0.063     0.127   0.381781E-04
     0.063     0.143   0.611374E-05
     0.063     0.159   0.830288E-06
     0.063     0.175   0.954859E-07
     0.063     0.190   0.926815E-08
     0.063     0.206   0.755048E-09
     0.063     0.222   0.511973E-10
     0.063     0.238   0.285470E-11
     0.063     0.254   0.128647E-12
     0.063     0.270   0.456917E-14
     0.063     0.286   0.123122E-15
     0.063     0.302   0.236564E-17
     0.063     0.317   0.288750E-19
     0.063     0.333   0.168279E-21
     0.063     0.349    0.00000    
     0.063     0.365    0.00000    
     0.063     0.381    0.00000    
     0.063     0.397    0.00000    
     0.063     0.413    0.00000    
     0.063     0.429    0.00000    
     0.063     0.444    0.00000    
     0.063     0.460    0.00000    
     0.063     0.476    0.00000    
     0.063     0.492    0.00000    
     0.063     0.508    0.00000    
     0.063     0.524    0.00000    
     0.063     0.540    0.00000    
     0.063     0.556    0.00000    
     0.063     0.571    0.00000    
     0.063     0.587    0.00000    
     0.063     0.603    0.00000    
     0.063     0.619    0.00000    
     0.063     0.635    0.00000    
     0.063     0.651    0.00000    
     0.063     0.667    0.00000    
     0.063     0.683    0.00000    
     0.063     0.698    0.00000    
     0.063     0.714    0.00000    
     0.063     0.730    0.00000    
     0.063     0.746    0.00000    
     0.063     0.762    0.00000    
     0.063     0.778    0.00000    
     0.063     0.794    0.00000    
     0.063     0.810    0.00000    
     0.063     0.825    0.00000    
     0.063     0.841    0.00000    
     0.063     0.857    0.00000    
     0.063     0.873    0.00000    
     0.063     0.889    0.00000    
     0.063     0.905    0.00000    
     0.063     0.921    0.00000    
     0.063     0.937    0.00000    
     0.063     0.952    0.00000    
     0.063     0.968    0.00000    
     0.063     0.984    0.00000    
     0.063     1.000    0.00000    
     0.079     0.000   0.246757    
     0.079     0.016   0.154531    
     0.079     0.032   0.819609E-01
     0.079     0.048   0.365127E-01
     0.079     0.063   0.136359E-01
     0.079     0.079   0.427553E-02
     0.079     0.095   0.112888E-02
     0.079     0.111   0.251762E-03
     0.079     0.127   0.475443E-04
     0.079     0.143   0.761363E-05
     0.079     0.159   0.103398E-05
     0.079     0.175   0.118912E-06
     0.079     0.190   0.115419E-07
     0.079     0.206   0.940284E-09
     0.079     0.222   0.637575E-10
     0.079     0.238   0.355504E-11
     0.079     0.254   0.160208E-12
     0.079     0.270   0.569013E-14
     0.079     0.286   0.153327E-15
     0.079     0.302   0.294600E-17
     0.079     0.317   0.359589E-19
     0.079     0.333   0.209562E-21
     0.079     0.349    0.00000    
     0.079     0.365    0.00000    
     0.079     0.381    0.00000    
     0.079     0.397    0.00000    
     0.079     0.413    0.00000    
     0.079     0.429    0.00000    
     0.079     0.444    0.00000    
     0.079     0.460    0.00000    
     0.079     0.476    0.00000    
     0.079     0.492    0.00000    
     0.079     0.508    0.00000    
     0.079     0.524    0.00000    
     0.079     0.540    0.00000    
     0.079     0.556    0.00000    
     0.079     0.571    0.00000    
     0.079     0.587    0.00000    
     0.079     0.603    0.00000    
     0.079     0.619    0.00000    
     0.079     0.635    0.00000    
     0.079     0.651    0.00000    
     0.079     0.667    0.00000    
     0.079     0.683    0.00000    
     0.079     0.698    0.00000    
     0.079     0.714    0.00000    
     0.079     0.730    0.00000    
     0.079     0.746    0.00000    
     0.079     0.762    0.00000    
     0.079     0.778    0.00000    
     0.079     0.794    0.00000    
     0.079     0.810    0.00000    
     0.079     0.825    0.00000    
     0.079     0.841    0.00000    
     0.079     0.857    0.00000    
     0.079     0.873    0.00000    
     0.079     0.889    0.00000    
     0.079     0.905    0.00000    
     0.079     0.921    0.00000    
     0.079     0.937    0.00000    
     0.079     0.952    0.00000    
     0.079     0.968    0.00000    
     0.079     0.984    0.00000    
     0.079     1.000    0.00000    
     0.095     0.000   0.294755    
     0.095     0.016   0.184589    
     0.095     0.032   0.979034E-01
     0.095     0.048   0.436149E-01
     0.095     0.063   0.162882E-01
     0.095     0.079   0.510718E-02
     0.095     0.095   0.134846E-02
     0.095     0.111   0.300734E-03
     0.095     0.127   0.567923E-04
     0.095     0.143   0.909458E-05
     0.095     0.159   0.123511E-05
     0.095     0.175   0.142041E-06
     0.095     0.190   0.137870E-07
     0.095     0.206   0.112318E-08
     0.095     0.222   0.761592E-10
     0.095     0.238   0.424655E-11
     0.095     0.254   0.191371E-12
     0.095     0.270   0.679694E-14
     0.095     0.286   0.183152E-15
     0.095     0.302   0.351904E-17
     0.095     0.317   0.429534E-19
     0.095     0.333   0.250325E-21
     0.095     0.349    0.00000    
     0.095     0.365    0.00000    
     0.095     0.381    0.00000    
     0.095     0.397    0.00000    
     0.095     0.413    0.00000    
     0.095     0.429    0.00000    
     0.095     0.444    0.00000    
     0.095     0.460    0.00000    
     0.095     0.476    0.00000    
     0.095     0.492    0.00000    
     0.095     0.508    0.00000    
     0.095     0.524    0.00000    
     0.095     0.540    0.00000    
     0.095     0.556    0.00000    
     0.095     0.571    0.00000    
     0.095     0.587    0.00000    
     0.095     0.603    0.00000    
     0.095     0.619    0.00000    
     0.095     0.635    0.00000    
     0.095     0.651    0.00000    
     0.095     0.667    0.00000    
     0.095     0.683    0.00000    
     0.095     0.698    0.00000    
     0.095     0.714    0.00000    
     0.095     0.730    0.00000    
     0.095     0.746    0.00000    
     0.095     0.762    0.00000    
     0.095     0.778    0.00000    
     0.095     0.794    0.00000    
     0.095     0.810    0.00000    
     0.095     0.825    0.00000    
     0.095     0.841    0.00000    
     0.095     0.857    0.00000    
     0.095     0.873    0.00000    
     0.095     0.889    0.00000    
     0.095     0.905    0.00000    
     0.095     0.921    0.00000    
     0.095     0.937    0.00000    
     0.095     0.952    0.00000    
     0.095     0.968    0.00000    
     0.095     0.984    0.00000    
     0.095     1.000    0.00000    
     0.111     0.000   0.342020    
     0.111     0.016   0.214189    
     0.111     0.032   0.113603    
     0.111     0.048   0.506087E-01
     0.111     0.063   0.189001E-01
     0.111     0.079   0.592613E-02
     0.111     0.095   0.156469E-02
     0.111     0.111   0.348957E-03
     0.111     0.127   0.658992E-04
     0.111     0.143   0.105529E-04
     0.111     0.159   0.143316E-05
     0.111     0.175   0.164818E-06
     0.111     0.190   0.159978E-07
     0.111     0.206   0.130329E-08
     0.111     0.222   0.883716E-10
     0.111     0.238   0.492750E-11
     0.111     0.254   0.222058E-12
     0.111     0.270   0.788685E-14
     0.111     0.286   0.212520E-15
     0.111     0.302   0.408333E-17
     0.111     0.317   0.498411E-19
     0.111     0.333   0.290466E-21
     0.111     0.349    0.00000    
     0.111     0.365    0.00000    
     0.111     0.381    0.00000    
     0.111     0.397    0.00000    
     0.111     0.413    0.00000    
     0.111     0.429    0.00000    
     0.111     0.444    0.00000    
     0.111     0.460    0.00000    
     0.111     0.476    0.00000    
     0.111     0.492    0.00000    
     0.111     0.508    0.00000    
     0.111     0.524    0.00000    
     0.111     0.540    0.00000    
     0.111     0.556    0.00000    
     0.111     0.571    0.00000    
     0.111     0.587    0.00000    
     0.111     0.603    0.00000    
     0.111     0.619    0.00000    
     0.111     0.635    0.00000    
     0.111     0.651    0.00000    
     0.111     0.667    0.00000    
     0.111     0.683    0.00000    
     0.111     0.698    0.00000    
     0.111     0.714    0.00000    
     0.111     0.730    0.00000    
     0.111     0.746    0.00000    
     0.111     0.762    0.00000    
     0.111     0.778    0.00000    
     0.111     0.794    0.00000    
     0.111     0.810    0.00000    
     0.111     0.825    0.00000    
     0.111     0.841    0.00000    
     0.111     0.857    0.00000    
     0.111     0.873    0.00000    
     0.111     0.889    0.00000    
     0.111     0.905    0.00000    
     0.111     0.921    0.00000    
     0.111     0.937    0.00000    
     0.111     0.952    0.00000    
     0.111     0.968    0.00000    
     0.111     0.984    0.00000    
     0.111     1.000    0.00000    
     0.127     0.000   0.388435    
     0.127     0.016   0.243256    
     0.127     0.032   0.129019    
     0.127     0.048   0.574767E-01
     0.127     0.063   0.214650E-01
     0.127     0.079   0.673035E-02
     0.127     0.095   0.177703E-02
     0.127     0.111   0.396313E-03
     0.127     0.127   0.748422E-04
     0.127     0.143   0.119850E-04
     0.127     0.159   0.162765E-05
     0.127     0.175   0.187185E-06
     0.127     0.190   0.181688E-07
     0.127     0.206   0.148015E-08
     0.127     0.222   0.100364E-09
     0.127     0.238   0.559620E-11
     0.127     0.254   0.252193E-12
     0.127     0.270   0.895716E-14
     0.127     0.286   0.241361E-15
     0.127     0.302   0.463747E-17
     0.127     0.317   0.566049E-19
     0.127     0.333   0.329884E-21
     0.127     0.349    0.00000    
     0.127     0.365    0.00000    
     0.127     0.381    0.00000    
     0.127     0.397    0.00000    
     0.127     0.413    0.00000    
     0.127     0.429    0.00000    
     0.127     0.444    0.00000    
     0.127     0.460    0.00000    
     0.127     0.476    0.00000    
     0.127     0.492    0.00000    
     0.127     0.508    0.00000    
     0.127     0.524    0.00000    
     0.127     0.540    0.00000    
     0.127     0.556    0.00000    
     0.127     0.571    0.00000    
     0.127     0.587    0.00000    
     0.127     0.603    0.00000    
     0.127     0.619    0.00000    
     0.127     0.635    0.00000    
     0.127     0.651    0.00000    
     0.127     0.667    0.00000    
     0.127     0.683    0.00000    
     0.127     0.698    0.00000    
     0.127     0.714    0.00000    
     0.127     0.730    0.00000    
     0.127     0.746    0.00000    
     0.127     0.762    0.00000    
     0.127     0.778    0.00000    
     0.127     0.794    0.00000    
     0.127     0.810    0.00000    
     0.127     0.825    0.00000    
     0.127     0.841    0.00000    
     0.127     0.857    0.00000    
     0.127     0.873    0.00000    
     0.127     0.889    0.00000    
     0.127     0.905    0.00000    
     0.127     0.921    0.00000    
     0.127     0.937    0.00000    
     0.127     0.952    0.00000    
     0.127     0.968    0.00000    
     0.127     0.984    0.00000    
     0.127     1.000    0.00000    
     0.143     0.000   0.433884    
     0.143     0.016   0.271718    
     0.143     0.032   0.144115    
     0.143     0.048   0.642018E-01
     0.143     0.063   0.239765E-01
     0.143     0.079   0.751784E-02
     0.143     0.095   0.198495E-02
     0.143     0.111   0.442684E-03
     0.143     0.127   0.835991E-04
     0.143     0.143   0.133874E-04
     0.143     0.159   0.181810E-05
     0.143     0.175   0.209087E-06
     0.143     0.190   0.202946E-07
     0.143     0.206   0.165334E-08
     0.143     0.222   0.112107E-09
     0.143     0.238   0.625098E-11
     0.143     0.254   0.281701E-12
     0.143     0.270   0.100052E-13
     0.143     0.286   0.269602E-15
     0.143     0.302   0.518008E-17
     0.143     0.317   0.632280E-19
     0.143     0.333   0.368482E-21
     0.143     0.349    0.00000    
     0.143     0.365    0.00000    
     0.143     0.381    0.00000    
     0.143     0.397    0.00000    
     0.143     0.413    0.00000    
     0.143     0.429    0.00000    
     0.143     0.444    0.00000    
     0.143     0.460    0.00000    
     0.143     0.476    0.00000    
     0.143     0.492    0.00000    
     0.143     0.508    0.00000    
     0.143     0.524    0.00000    
     0.143     0.540    0.00000    
     0.143     0.556    0.00000    
     0.143     0.571    0.00000    
     0.143     0.587    0.00000    
     0.143     0.603    0.00000    
     0.143     0.619    0.00000    
     0.143     0.635    0.00000    
     0.143     0.651    0.00000    
     0.143     0.667    0.00000    
     0.143     0.683    0.00000    
     0.143     0.698    0.00000    
     0.143     0.714    0.00000    
     0.143     0.730    0.00000    
     0.143     0.746    0.00000    
     0.143     0.762    0.00000    
     0.143     0.778    0.00000    
     0.143     0.794    0.00000    
     0.143     0.810    0.00000    
     0.143     0.825    0.00000    
     0.143     0.841    0.00000    
     0.143     0.857    0.00000    
     0.143     0.873    0.00000    
     0.143     0.889    0.00000    
     0.143     0.905    0.00000    
     0.143     0.921    0.00000    
     0.143     0.937    0.00000    
     0.143     0.952    0.00000    
     0.143     0.968    0.00000    
     0.143     0.984    0.00000    
     0.143     1.000    0.00000    
     0.159     0.000   0.478254    
     0.159     0.016   0.299505    
     0.159     0.032   0.158853    
     0.159     0.048   0.707673E-01
     0.159     0.063   0.264284E-01
     0.159     0.079   0.828664E-02
     0.159     0.095   0.218794E-02
     0.159     0.111   0.487954E-03
     0.159     0.127   0.921482E-04
     0.159     0.143   0.147564E-04
     0.159     0.159   0.200402E-05
     0.159     0.175   0.230469E-06
     0.159     0.190   0.223700E-07
     0.159     0.206   0.182242E-08
     0.159     0.222   0.123572E-09
     0.159     0.238   0.689022E-11
     0.159     0.254   0.310508E-12
     0.159     0.270   0.110284E-13
     0.159     0.286   0.297172E-15
     0.159     0.302   0.570981E-17
     0.159     0.317   0.696939E-19
     0.159     0.333   0.406164E-21
     0.159     0.349    0.00000    
     0.159     0.365    0.00000    
     0.159     0.381    0.00000    
     0.159     0.397    0.00000    
     0.159     0.413    0.00000    
     0.159     0.429    0.00000    
     0.159     0.444    0.00000    
     0.159     0.460    0.00000    
     0.159     0.476    0.00000    
     0.159     0.492    0.00000    
     0.159     0.508    0.00000    
     0.159     0.524    0.00000    
     0.159     0.540    0.00000    
     0.159     0.556    0.00000    
     0.159     0.571    0.00000    
     0.159     0.587    0.00000    
     0.159     0.603    0.00000    
     0.159     0.619    0.00000    
     0.159     0.635    0.00000    
     0.159     0.651    0.00000    
     0.159     0.667    0.00000    
     0.159     0.683    0.00000    
     0.159     0.698    0.00000    
     0.159     0.714    0.00000    
     0.159     0.730    0.00000    
     0.159     0.746    0.00000    
     0.159     0.762    0.00000    
     0.159     0.778    0.00000    
     0.159     0.794    0.00000    
     0.159     0.810    0.00000    
     0.159     0.825    0.00000    
     0.159     0.841    0.00000    
     0.159     0.857    0.00000    
     0.159     0.873    0.00000    
     0.159     0.889    0.00000    
     0.159     0.905    0.00000    
     0.159     0.921    0.00000    
     0.159     0.937    0.00000    
     0.159     0.952    0.00000    
     0.159     0.968    0.00000    
     0.159     0.984    0.00000    
     0.159     1.000    0.00000    
     0.175     0.000   0.521435    
     0.175     0.016   0.326547    
     0.175     0.032   0.173196    
     0.175     0.048   0.771568E-01
     0.175     0.063   0.288146E-01
     0.175     0.079   0.903483E-02
     0.175     0.095   0.238548E-02
     0.175     0.111   0.532011E-03
     0.175     0.127   0.100468E-03
     0.175     0.143   0.160887E-04
     0.175     0.159   0.218496E-05
     0.175     0.175   0.251278E-06
     0.175     0.190   0.243898E-07
     0.175     0.206   0.198696E-08
     0.175     0.222   0.134729E-09
     0.175     0.238   0.751234E-11
     0.175     0.254   0.338544E-12
     0.175     0.270   0.120241E-13
     0.175     0.286   0.324003E-15
     0.175     0.302   0.622535E-17
     0.175     0.317   0.759865E-19
     0.175     0.333   0.442836E-21
     0.175     0.349    0.00000    
     0.175     0.365    0.00000    
     0.175     0.381    0.00000    
     0.175     0.397    0.00000    
     0.175     0.413    0.00000    
     0.175     0.429    0.00000    
     0.175     0.444    0.00000    
     0.175     0.460    0.00000    
     0.175     0.476    0.00000    
     0.175     0.492    0.00000    
     0.175     0.508    0.00000    
     0.175     0.524    0.00000    
     0.175     0.540    0.00000    
     0.175     0.556    0.00000    
     0.175     0.571    0.00000    
     0.175     0.587    0.00000    
     0.175     0.603    0.00000    
     0.175     0.619    0.00000    
     0.175     0.635    0.00000    
     0.175     0.651    0.00000    
     0.175     0.667    0.00000    
     0.175     0.683    0.00000    
     0.175     0.698    0.00000    
     0.175     0.714    0.00000    
     0.175     0.730    0.00000    
     0.175     0.746    0.00000    
     0.175     0.762    0.00000    
     0.175     0.778    0.00000    
     0.175     0.794    0.00000    
     0.175     0.810    0.00000    
     0.175     0.825    0.00000    
     0.175     0.841    0.00000    
     0.175     0.857    0.00000    
     0.175     0.873    0.00000    
     0.175     0.889    0.00000    
     0.175     0.905    0.00000    
     0.175     0.921    0.00000    
     0.175     0.937    0.00000    
     0.175     0.952    0.00000    
     0.175     0.968    0.00000    
     0.175     0.984    0.00000    
     0.175     1.000    0.00000    
     0.190     0.000   0.563320    
     0.190     0.016   0.352777    
     0.190     0.032   0.187108    
     0.190     0.048   0.833545E-01
     0.190     0.063   0.311292E-01
     0.190     0.079   0.976057E-02
     0.190     0.095   0.257710E-02
     0.190     0.111   0.574746E-03
     0.190     0.127   0.108538E-03
     0.190     0.143   0.173811E-04
     0.190     0.159   0.236047E-05
     0.190     0.175   0.271462E-06
     0.190     0.190   0.263489E-07
     0.190     0.206   0.214657E-08
     0.190     0.222   0.145551E-09
     0.190     0.238   0.811578E-11
     0.190     0.254   0.365737E-12
     0.190     0.270   0.129899E-13
     0.190     0.286   0.350029E-15
     0.190     0.302   0.672540E-17
     0.190     0.317   0.820902E-19
     0.190     0.333   0.478408E-21
     0.190     0.349    0.00000    
     0.190     0.365    0.00000    
     0.190     0.381    0.00000    
     0.190     0.397    0.00000    
     0.190     0.413    0.00000    
     0.190     0.429    0.00000    
     0.190     0.444    0.00000    
     0.190     0.460    0.00000    
     0.190     0.476    0.00000    
     0.190     0.492    0.00000    
     0.190     0.508    0.00000    
     0.190     0.524    0.00000    
     0.190     0.540    0.00000    
     0.190     0.556    0.00000    
     0.190     0.571    0.00000    
     0.190     0.587    0.00000    
     0.190     0.603    0.00000    
     0.190     0.619    0.00000    
     0.190     0.635    0.00000    
     0.190     0.651    0.00000    
     0.190     0.667    0.00000    
     0.190     0.683    0.00000    
     0.190     0.698    0.00000    
     0.190     0.714    0.00000    
     0.190     0.730    0.00000    
     0.190     0.746    0.00000    
     0.190     0.762    0.00000    
     0.190     0.778    0.00000    
     0.190     0.794    0.00000    
     0.190     0.810    0.00000    
     0.190     0.825    0.00000    
     0.190     0.841    0.00000    
     0.190     0.857    0.00000    
     0.190     0.873    0.00000    
     0.190     0.889    0.00000    
     0.190     0.905    0.00000    
     0.190     0.921    0.00000    
     0.190     0.937    0.00000    
     0.190     0.952    0.00000    
     0.190     0.968    0.00000    
     0.190     0.984    0.00000    