Title="Temperature Data"
Variables="X","Y","T"
 
Zone I=   128, J=   128, F=POINT
     0.000     0.000    0.00000    
     0.000     0.008    0.00000    
     0.000     0.016    0.00000    
     0.000     0.024    0.00000    
     0.000     0.031    0.00000    
     0.000     0.039    0.00000    
     0.000     0.047    0.00000    
     0.000     0.055    0.00000    
     0.000     0.063    0.00000    
     0.000     0.071    0.00000    
     0.000     0.079    0.00000    
     0.000     0.087    0.00000    
     0.000     0.094    0.00000    
     0.000     0.102    0.00000    
     0.000     0.110    0.00000    
     0.000     0.118    0.00000    
     0.000     0.126    0.00000    
     0.000     0.134    0.00000    
     0.000     0.142    0.00000    
     0.000     0.150    0.00000    
     0.000     0.157    0.00000    
     0.000     0.165    0.00000    
     0.000     0.173    0.00000    
     0.000     0.181    0.00000    
     0.000     0.189    0.00000    
     0.000     0.197    0.00000    
     0.000     0.205    0.00000    
     0.000     0.213    0.00000    
     0.000     0.220    0.00000    
     0.000     0.228    0.00000    
     0.000     0.236    0.00000    
     0.000     0.244    0.00000    
     0.000     0.252    0.00000    
     0.000     0.260    0.00000    
     0.000     0.268    0.00000    
     0.000     0.276    0.00000    
     0.000     0.283    0.00000    
     0.000     0.291    0.00000    
     0.000     0.299    0.00000    
     0.000     0.307    0.00000    
     0.000     0.315    0.00000    
     0.000     0.323    0.00000    
     0.000     0.331    0.00000    
     0.000     0.339    0.00000    
     0.000     0.346    0.00000    
     0.000     0.354    0.00000    
     0.000     0.362    0.00000    
     0.000     0.370    0.00000    
     0.000     0.378    0.00000    
     0.000     0.386    0.00000    
     0.000     0.394    0.00000    
     0.000     0.402    0.00000    
     0.000     0.409    0.00000    
     0.000     0.417    0.00000    
     0.000     0.425    0.00000    
     0.000     0.433    0.00000    
     0.000     0.441    0.00000    
     0.000     0.449    0.00000    
     0.000     0.457    0.00000    
     0.000     0.465    0.00000    
     0.000     0.472    0.00000    
     0.000     0.480    0.00000    
     0.000     0.488    0.00000    
     0.000     0.496    0.00000    
     0.000     0.504    0.00000    
     0.000     0.512    0.00000    
     0.000     0.520    0.00000    
     0.000     0.528    0.00000    
     0.000     0.535    0.00000    
     0.000     0.543    0.00000    
     0.000     0.551    0.00000    
     0.000     0.559    0.00000    
     0.000     0.567    0.00000    
     0.000     0.575    0.00000    
     0.000     0.583    0.00000    
     0.000     0.591    0.00000    
     0.000     0.598    0.00000    
     0.000     0.606    0.00000    
     0.000     0.614    0.00000    
     0.000     0.622    0.00000    
     0.000     0.630    0.00000    
     0.000     0.638    0.00000    
     0.000     0.646    0.00000    
     0.000     0.654    0.00000    
     0.000     0.661    0.00000    
     0.000     0.669    0.00000    
     0.000     0.677    0.00000    
     0.000     0.685    0.00000    
     0.000     0.693    0.00000    
     0.000     0.701    0.00000    
     0.000     0.709    0.00000    
     0.000     0.717    0.00000    
     0.000     0.724    0.00000    
     0.000     0.732    0.00000    
     0.000     0.740    0.00000    
     0.000     0.748    0.00000    
     0.000     0.756    0.00000    
     0.000     0.764    0.00000    
     0.000     0.772    0.00000    
     0.000     0.780    0.00000    
     0.000     0.787    0.00000    
     0.000     0.795    0.00000    
     0.000     0.803    0.00000    
     0.000     0.811    0.00000    
     0.000     0.819    0.00000    
     0.000     0.827    0.00000    
     0.000     0.835    0.00000    
     0.000     0.843    0.00000    
     0.000     0.850    0.00000    
     0.000     0.858    0.00000    
     0.000     0.866    0.00000    
     0.000     0.874    0.00000    
     0.000     0.882    0.00000    
     0.000     0.890    0.00000    
     0.000     0.898    0.00000    
     0.000     0.906    0.00000    
     0.000     0.913    0.00000    
     0.000     0.921    0.00000    
     0.000     0.929    0.00000    
     0.000     0.937    0.00000    
     0.000     0.945    0.00000    
     0.000     0.953    0.00000    
     0.000     0.961    0.00000    
     0.000     0.969    0.00000    
     0.000     0.976    0.00000    
     0.000     0.984    0.00000    
     0.000     0.992    0.00000    
     0.000     1.000    0.00000    
     0.008     0.000   0.247344E-01
     0.008     0.008   0.239338E-01
     0.008     0.016   0.231484E-01
     0.008     0.024   0.223779E-01
     0.008     0.031   0.216228E-01
     0.008     0.039   0.208824E-01
     0.008     0.047   0.201575E-01
     0.008     0.055   0.194472E-01
     0.008     0.063   0.187526E-01
     0.008     0.071   0.180725E-01
     0.008     0.079   0.174081E-01
     0.008     0.087   0.167581E-01
     0.008     0.094   0.161240E-01
     0.008     0.102   0.155041E-01
     0.008     0.110   0.149002E-01
     0.008     0.118   0.143104E-01
     0.008     0.126   0.137366E-01
     0.008     0.134   0.131768E-01
     0.008     0.142   0.126330E-01
     0.008     0.150   0.121029E-01
     0.008     0.157   0.115888E-01
     0.008     0.165   0.110883E-01
     0.008     0.173   0.106036E-01
     0.008     0.181   0.101322E-01
     0.008     0.189   0.967663E-02
     0.008     0.197   0.923396E-02
     0.008     0.205   0.880687E-02
     0.008     0.213   0.839240E-02
     0.008     0.220   0.799324E-02
     0.008     0.228   0.760634E-02
     0.008     0.236   0.723443E-02
     0.008     0.244   0.687439E-02
     0.008     0.252   0.652896E-02
     0.008     0.260   0.619498E-02
     0.008     0.268   0.587516E-02
     0.008     0.276   0.556636E-02
     0.008     0.283   0.527123E-02
     0.008     0.291   0.498664E-02
     0.008     0.299   0.471520E-02
     0.008     0.307   0.445381E-02
     0.008     0.315   0.420500E-02
     0.008     0.323   0.396574E-02
     0.008     0.331   0.373846E-02
     0.008     0.339   0.352020E-02
     0.008     0.346   0.331331E-02
     0.008     0.354   0.311491E-02
     0.008     0.362   0.292724E-02
     0.008     0.370   0.274753E-02
     0.008     0.378   0.257790E-02
     0.008     0.386   0.241570E-02
     0.008     0.394   0.226293E-02
     0.008     0.402   0.211707E-02
     0.008     0.409   0.197997E-02
     0.008     0.417   0.184928E-02
     0.008     0.425   0.172671E-02
     0.008     0.433   0.161003E-02
     0.008     0.441   0.150084E-02
     0.008     0.449   0.139706E-02
     0.008     0.457   0.130016E-02
     0.008     0.465   0.120820E-02
     0.008     0.472   0.112252E-02
     0.008     0.480   0.104133E-02
     0.008     0.488   0.965855E-03
     0.008     0.496   0.894450E-03
     0.008     0.504   0.828218E-03
     0.008     0.512   0.765653E-03
     0.008     0.520   0.707752E-03
     0.008     0.528   0.653141E-03
     0.008     0.535   0.602714E-03
     0.008     0.543   0.555227E-03
     0.008     0.551   0.511478E-03
     0.008     0.559   0.470344E-03
     0.008     0.567   0.432533E-03
     0.008     0.575   0.397039E-03
     0.008     0.583   0.364486E-03
     0.008     0.591   0.333976E-03
     0.008     0.598   0.306057E-03
     0.008     0.606   0.279933E-03
     0.008     0.614   0.256082E-03
     0.008     0.622   0.233799E-03
     0.008     0.630   0.213502E-03
     0.008     0.638   0.194570E-03
     0.008     0.646   0.177364E-03
     0.008     0.654   0.161341E-03
     0.008     0.661   0.146812E-03
     0.008     0.669   0.133304E-03
     0.008     0.677   0.121084E-03
     0.008     0.685   0.109740E-03
     0.008     0.693   0.995017E-04
     0.008     0.701   0.900130E-04
     0.008     0.709   0.814684E-04
     0.008     0.717   0.735621E-04
     0.008     0.724   0.664589E-04
     0.008     0.732   0.598970E-04
     0.008     0.740   0.540151E-04
     0.008     0.748   0.485901E-04
     0.008     0.756   0.437383E-04
     0.008     0.764   0.392706E-04
     0.008     0.772   0.352840E-04
     0.008     0.780   0.316187E-04
     0.008     0.787   0.283554E-04
     0.008     0.795   0.253598E-04
     0.008     0.803   0.226985E-04
     0.008     0.811   0.202591E-04
     0.008     0.819   0.180965E-04
     0.008     0.827   0.161170E-04
     0.008     0.835   0.143653E-04
     0.008     0.843   0.127640E-04
     0.008     0.850   0.113493E-04
     0.008     0.858   0.100573E-04
     0.008     0.866   0.891725E-05
     0.008     0.874   0.787662E-05
     0.008     0.882   0.695872E-05
     0.008     0.890   0.612077E-05
     0.008     0.898   0.538103E-05
     0.008     0.906   0.470487E-05
     0.008     0.913   0.410629E-05
     0.008     0.921   0.355749E-05
     0.008     0.929   0.306881E-05
     0.008     0.937   0.261818E-05
     0.008     0.945   0.221276E-05
     0.008     0.953   0.183531E-05
     0.008     0.961   0.149011E-05
     0.008     0.969   0.116404E-05
     0.008     0.976   0.858699E-06
     0.008     0.984   0.564492E-06
     0.008     0.992   0.280418E-06
     0.008     1.000    0.00000    
     0.016     0.000   0.494537E-01
     0.016     0.008   0.478531E-01
     0.016     0.016   0.462825E-01
     0.016     0.024   0.447424E-01
     0.016     0.031   0.432320E-01
     0.016     0.039   0.417524E-01
     0.016     0.047   0.403022E-01
     0.016     0.055   0.388831E-01
     0.016     0.063   0.374931E-01
     0.016     0.071   0.361345E-01
     0.016     0.079   0.348048E-01
     0.016     0.087   0.335067E-01
     0.016     0.094   0.322372E-01
     0.016     0.102   0.309996E-01
     0.016     0.110   0.297903E-01
     0.016     0.118   0.286131E-01
     0.016     0.126   0.274638E-01
     0.016     0.134   0.263466E-01
     0.016     0.142   0.252570E-01
     0.016     0.150   0.241996E-01
     0.016     0.157   0.231693E-01
     0.016     0.165   0.221710E-01
     0.016     0.173   0.211995E-01
     0.016     0.181   0.202596E-01
     0.016     0.189   0.193460E-01
     0.016     0.197   0.184637E-01
     0.016     0.205   0.176069E-01
     0.016     0.213   0.167811E-01
     0.016     0.220   0.159801E-01
     0.016     0.228   0.152095E-01
     0.016     0.236   0.144630E-01
     0.016     0.244   0.137461E-01
     0.016     0.252   0.130525E-01
     0.016     0.260   0.123876E-01
     0.016     0.268   0.117453E-01
     0.016     0.276   0.111308E-01
     0.016     0.283   0.105378E-01
     0.016     0.291   0.997166E-02
     0.016     0.299   0.942610E-02
     0.016     0.307   0.890629E-02
     0.016     0.315   0.840606E-02
     0.016     0.323   0.793040E-02
     0.016     0.331   0.747330E-02
     0.016     0.339   0.703955E-02
     0.016     0.346   0.662331E-02
     0.016     0.354   0.622916E-02
     0.016     0.362   0.585146E-02
     0.016     0.370   0.549457E-02
     0.016     0.378   0.515306E-02
     0.016     0.386   0.483105E-02
     0.016     0.394   0.452338E-02
     0.016     0.402   0.423390E-02
     0.016     0.409   0.395771E-02
     0.016     0.417   0.369841E-02
     0.016     0.425   0.345140E-02
     0.016     0.433   0.321999E-02
     0.016     0.441   0.299988E-02
     0.016     0.449   0.279412E-02
     0.016     0.457   0.259870E-02
     0.016     0.465   0.241644E-02
     0.016     0.472   0.224359E-02
     0.016     0.480   0.208274E-02
     0.016     0.488   0.193043E-02
     0.016     0.496   0.178901E-02
     0.016     0.504   0.165531E-02
     0.016     0.512   0.153143E-02
     0.016     0.520   0.141451E-02
     0.016     0.528   0.130642E-02
     0.016     0.535   0.120455E-02
     0.016     0.543   0.111060E-02
     0.016     0.551   0.102219E-02
     0.016     0.559   0.940830E-03
     0.016     0.567   0.864396E-03
     0.016     0.575   0.794217E-03
     0.016     0.583   0.728389E-03
     0.016     0.591   0.668085E-03
     0.016     0.598   0.611610E-03
     0.016     0.606   0.559992E-03
     0.016     0.614   0.511729E-03
     0.016     0.622   0.467716E-03
     0.016     0.630   0.426630E-03
     0.016     0.638   0.389248E-03
     0.016     0.646   0.354407E-03
     0.016     0.654   0.322780E-03
     0.016     0.661   0.293351E-03
     0.016     0.669   0.266697E-03
     0.016     0.677   0.241935E-03
     0.016     0.685   0.219560E-03
     0.016     0.693   0.198807E-03
     0.016     0.701   0.180097E-03
     0.016     0.709   0.162771E-03
     0.016     0.717   0.147187E-03
     0.016     0.724   0.132778E-03
     0.016     0.732   0.119848E-03
     0.016     0.740   0.107913E-03
     0.016     0.748   0.972273E-04
     0.016     0.756   0.873793E-04
     0.016     0.764   0.785818E-04
     0.016     0.772   0.704872E-04
     0.016     0.780   0.632722E-04
     0.016     0.787   0.566440E-04
     0.016     0.795   0.507492E-04
     0.016     0.803   0.453420E-04
     0.016     0.811   0.405433E-04
     0.016     0.819   0.361479E-04
     0.016     0.827   0.322549E-04
     0.016     0.835   0.286939E-04
     0.016     0.843   0.255455E-04
     0.016     0.850   0.226689E-04
     0.016     0.858   0.201291E-04
     0.016     0.866   0.178105E-04
     0.016     0.874   0.157651E-04
     0.016     0.882   0.138982E-04
     0.016     0.890   0.122512E-04
     0.016     0.898   0.107469E-04
     0.016     0.906   0.941743E-05
     0.016     0.913   0.820074E-05
     0.016     0.921   0.712100E-05
     0.016     0.929   0.612859E-05
     0.016     0.937   0.524092E-05
     0.016     0.945   0.441890E-05
     0.016     0.953   0.367390E-05
     0.016     0.961   0.297572E-05
     0.016     0.969   0.233021E-05
     0.016     0.976   0.171478E-05
     0.016     0.984   0.113002E-05
     0.016     0.992   0.559976E-06
     0.016     1.000    0.00000    
     0.024     0.000   0.741428E-01
     0.024     0.008   0.717429E-01
     0.024     0.016   0.693886E-01
     0.024     0.024   0.670790E-01
     0.024     0.031   0.648154E-01
     0.024     0.039   0.625961E-01
     0.024     0.047   0.604232E-01
     0.024     0.055   0.582941E-01
     0.024     0.063   0.562119E-01
     0.024     0.071   0.541732E-01
     0.024     0.079   0.521817E-01
     0.024     0.087   0.502332E-01
     0.024     0.094   0.483325E-01
     0.024     0.102   0.464743E-01
     0.024     0.110   0.446641E-01
     0.024     0.118   0.428961E-01
     0.024     0.126   0.411763E-01
     0.024     0.134   0.394981E-01
     0.024     0.142   0.378680E-01
     0.024     0.150   0.362790E-01
     0.024     0.157   0.347382E-01
     0.024     0.165   0.332377E-01
     0.024     0.173   0.317850E-01
     0.024     0.181   0.303719E-01
     0.024     0.189   0.290062E-01
     0.024     0.197   0.276793E-01
     0.024     0.205   0.263991E-01
     0.024     0.213   0.251567E-01
     0.024     0.220   0.239602E-01
     0.024     0.228   0.228004E-01
     0.024     0.236   0.216856E-01
     0.024     0.244   0.206064E-01
     0.024     0.252   0.195709E-01
     0.024     0.260   0.185698E-01
     0.024     0.268   0.176111E-01
     0.024     0.276   0.166854E-01
     0.024     0.283   0.158008E-01
     0.024     0.291   0.149477E-01
     0.024     0.299   0.141341E-01
     0.024     0.307   0.133505E-01
     0.024     0.315   0.126047E-01
     0.024     0.323   0.118875E-01
     0.024     0.331   0.112062E-01
     0.024     0.339   0.105520E-01
     0.024     0.346   0.993181E-02
     0.024     0.354   0.933710E-02
     0.024     0.362   0.877455E-02
     0.024     0.370   0.823587E-02
     0.024     0.378   0.772739E-02
     0.024     0.386   0.724120E-02
     0.024     0.394   0.678325E-02
     0.024     0.402   0.634602E-02
     0.024     0.409   0.593508E-02
     0.024     0.417   0.554331E-02
     0.024     0.425   0.517589E-02
     0.024     0.433   0.482614E-02
     0.024     0.441   0.449885E-02
     0.024     0.449   0.418776E-02
     0.024     0.457   0.389729E-02
     0.024     0.465   0.362163E-02
     0.024     0.472   0.336480E-02
     0.024     0.480   0.312144E-02
     0.024     0.488   0.289520E-02
     0.024     0.496   0.268116E-02
     0.024     0.504   0.248263E-02
     0.024     0.512   0.229509E-02
     0.024     0.520   0.212152E-02
     0.024     0.528   0.195782E-02
     0.024     0.535   0.180667E-02
     0.024     0.543   0.166432E-02
     0.024     0.551   0.153318E-02
     0.024     0.559   0.140988E-02
     0.024     0.567   0.129654E-02
     0.024     0.575   0.119014E-02
     0.024     0.583   0.109257E-02
     0.024     0.591   0.100111E-02
     0.024     0.598   0.917424E-03
     0.024     0.606   0.839114E-03
     0.024     0.614   0.767620E-03
     0.024     0.622   0.700826E-03
     0.024     0.630   0.639984E-03
     0.024     0.638   0.583233E-03
     0.024     0.646   0.531658E-03
     0.024     0.654   0.483628E-03
     0.024     0.661   0.440077E-03
     0.024     0.669   0.399586E-03
     0.024     0.677   0.362955E-03
     0.024     0.685   0.328952E-03
     0.024     0.693   0.298262E-03
     0.024     0.701   0.269819E-03
     0.024     0.709   0.244206E-03
     0.024     0.717   0.220506E-03
     0.024     0.724   0.199214E-03
     0.024     0.732   0.179545E-03
     0.024     0.740   0.161913E-03
     0.024     0.748   0.145651E-03
     0.024     0.756   0.131108E-03
     0.024     0.764   0.117716E-03
     0.024     0.772   0.105766E-03
     0.024     0.780   0.947788E-04
     0.024     0.787   0.849969E-04
     0.024     0.795   0.760174E-04
     0.024     0.803   0.680400E-04
     0.024     0.811   0.607279E-04
     0.024     0.819   0.542452E-04
     0.024     0.827   0.483115E-04
     0.024     0.835   0.430608E-04
     0.024     0.843   0.382608E-04
     0.024     0.850   0.340202E-04
     0.024     0.858   0.301474E-04
     0.024     0.866   0.267299E-04
     0.024     0.874   0.236106E-04
     0.024     0.882   0.208591E-04
     0.024     0.890   0.183473E-04
     0.024     0.898   0.161299E-04
     0.024     0.906   0.141031E-04
     0.024     0.913   0.123088E-04
     0.024     0.921   0.106638E-04
     0.024     0.929   0.919891E-05
     0.024     0.937   0.784813E-05
     0.024     0.945   0.663286E-05
     0.024     0.953   0.550144E-05
     0.024     0.961   0.446670E-05
     0.024     0.969   0.348928E-05
     0.024     0.976   0.257400E-05
     0.024     0.984   0.169210E-05
     0.024     0.992   0.840567E-06
     0.024     1.000    0.00000    
     0.031     0.000   0.987864E-01
     0.031     0.008   0.955890E-01
     0.031     0.016   0.924517E-01
     0.031     0.024   0.893753E-01
     0.031     0.031   0.863582E-01
     0.031     0.039   0.834027E-01
     0.031     0.047   0.805058E-01
     0.031     0.055   0.776711E-01
     0.031     0.063   0.748945E-01
     0.031     0.071   0.721806E-01
     0.031     0.079   0.695244E-01
     0.031     0.087   0.669314E-01
     0.031     0.094   0.643956E-01
     0.031     0.102   0.619234E-01
     0.031     0.110   0.595077E-01
     0.031     0.118   0.571561E-01
     0.031     0.126   0.548603E-01
     0.031     0.134   0.526287E-01
     0.031     0.142   0.504523E-01
     0.031     0.150   0.483400E-01
     0.031     0.157   0.462820E-01
     0.031     0.165   0.442878E-01
     0.031     0.173   0.423470E-01
     0.031     0.181   0.404697E-01
     0.031     0.189   0.386446E-01
     0.031     0.197   0.368822E-01
     0.031     0.205   0.351708E-01
     0.031     0.213   0.335211E-01
     0.031     0.220   0.319212E-01
     0.031     0.228   0.303818E-01
     0.031     0.236   0.288906E-01
     0.031     0.244   0.274585E-01
     0.031     0.252   0.260730E-01
     0.031     0.260   0.247450E-01
     0.031     0.268   0.234618E-01
     0.031     0.276   0.222343E-01
     0.031     0.283   0.210498E-01
     0.031     0.291   0.199189E-01
     0.031     0.299   0.188291E-01
     0.031     0.307   0.177908E-01
     0.031     0.315   0.167915E-01
     0.031     0.323   0.158414E-01
     0.031     0.331   0.149283E-01
     0.031     0.339   0.140619E-01
     0.031     0.346   0.132304E-01
     0.031     0.354   0.124431E-01
     0.031     0.362   0.116886E-01
     0.031     0.370   0.109757E-01
     0.031     0.378   0.102935E-01
     0.031     0.386   0.965028E-02
     0.031     0.394   0.903570E-02
     0.031     0.402   0.845744E-02
     0.031     0.409   0.790574E-02
     0.031     0.417   0.738778E-02
     0.031     0.425   0.689435E-02
     0.031     0.433   0.643210E-02
     0.031     0.441   0.599241E-02
     0.031     0.449   0.558140E-02
     0.031     0.457   0.519105E-02
     0.031     0.465   0.482696E-02
     0.031     0.472   0.448170E-02
     0.031     0.480   0.416038E-02
     0.031     0.488   0.385614E-02
     0.031     0.496   0.357364E-02
     0.031     0.504   0.330656E-02
     0.031     0.512   0.305912E-02
     0.031     0.520   0.282555E-02
     0.031     0.528   0.260964E-02
     0.031     0.535   0.240616E-02
     0.031     0.543   0.221847E-02
     0.031     0.551   0.204188E-02
     0.031     0.559   0.187936E-02
     0.031     0.567   0.172668E-02
     0.031     0.575   0.158649E-02
     0.031     0.583   0.145500E-02
     0.031     0.591   0.133454E-02
     0.031     0.598   0.122172E-02
     0.031     0.606   0.111861E-02
     0.031     0.614   0.102221E-02
     0.031     0.622   0.934288E-03
     0.031     0.630   0.852216E-03
     0.031     0.638   0.777544E-03
     0.031     0.646   0.707948E-03
     0.031     0.654   0.644771E-03
     0.031     0.661   0.585984E-03
     0.031     0.669   0.532742E-03
     0.031     0.677   0.483278E-03
     0.031     0.685   0.438583E-03
     0.031     0.693   0.397127E-03
     0.031     0.701   0.359753E-03
     0.031     0.709   0.325143E-03
     0.031     0.717   0.294013E-03
     0.031     0.724   0.265232E-03
     0.031     0.732   0.239404E-03
     0.031     0.740   0.215563E-03
     0.031     0.748   0.194217E-03
     0.031     0.756   0.174545E-03
     0.031     0.764   0.156971E-03
     0.031     0.772   0.140802E-03
     0.031     0.780   0.126390E-03
     0.031     0.787   0.113149E-03
     0.031     0.795   0.101374E-03
     0.031     0.803   0.905731E-04
     0.031     0.811   0.809874E-04
     0.031     0.819   0.722074E-04
     0.031     0.827   0.644309E-04
     0.031     0.835   0.573176E-04
     0.031     0.843   0.510285E-04
     0.031     0.850   0.452822E-04
     0.031     0.858   0.402090E-04
     0.031     0.866   0.355774E-04
     0.031     0.874   0.314916E-04
     0.031     0.882   0.277624E-04
     0.031     0.890   0.244723E-04
     0.031     0.898   0.214674E-04
     0.031     0.906   0.188118E-04
     0.031     0.913   0.163814E-04
     0.031     0.921   0.142246E-04
     0.031     0.929   0.122422E-04
     0.031     0.937   0.104690E-04
     0.031     0.945   0.882699E-05
     0.031     0.953   0.733881E-05
     0.031     0.961   0.594416E-05
     0.031     0.969   0.465471E-05
     0.031     0.976   0.342536E-05
     0.031     0.984   0.225728E-05
     0.031     0.992   0.111858E-05
     0.031     1.000    0.00000    
     0.039     0.000   0.123370    
     0.039     0.008   0.119376    
     0.039     0.016   0.115459    
     0.039     0.024   0.111616    
     0.039     0.031   0.107849    
     0.039     0.039   0.104157    
     0.039     0.047   0.100541    
     0.039     0.055   0.969984E-01
     0.039     0.063   0.935337E-01
     0.039     0.071   0.901413E-01
     0.039     0.079   0.868275E-01
     0.039     0.087   0.835855E-01
     0.039     0.094   0.804227E-01
     0.039     0.102   0.773308E-01
     0.039     0.110   0.743188E-01
     0.039     0.118   0.713769E-01
     0.039     0.126   0.685151E-01
     0.039     0.134   0.657227E-01
     0.039     0.142   0.630104E-01
     0.039     0.150   0.603664E-01
     0.039     0.157   0.578025E-01
     0.039     0.165   0.553057E-01
     0.039     0.173   0.528885E-01
     0.039     0.181   0.505373E-01
     0.039     0.189   0.482648E-01
     0.039     0.197   0.460568E-01
     0.039     0.205   0.439266E-01
     0.039     0.213   0.418593E-01
     0.039     0.220   0.398685E-01
     0.039     0.228   0.379387E-01
     0.039     0.236   0.360837E-01
     0.039     0.244   0.342879E-01
     0.039     0.252   0.325650E-01
     0.039     0.260   0.308991E-01
     0.039     0.268   0.293040E-01
     0.039     0.276   0.277637E-01
     0.039     0.283   0.262917E-01
     0.039     0.291   0.248722E-01
     0.039     0.299   0.235183E-01
     0.039     0.307   0.222146E-01
     0.039     0.315   0.209736E-01
     0.039     0.323   0.197802E-01
     0.039     0.331   0.186466E-01
     0.039     0.339   0.175579E-01
     0.039     0.346   0.165260E-01
     0.039     0.354   0.155364E-01
     0.039     0.362   0.146004E-01
     0.039     0.370   0.137040E-01
     0.039     0.378   0.128580E-01
     0.039     0.386   0.120490E-01
     0.039     0.394   0.112870E-01
     0.039     0.402   0.105594E-01
     0.039     0.409   0.987566E-02
     0.039     0.417   0.922377E-02
     0.039     0.425   0.861241E-02
     0.039     0.433   0.803045E-02
     0.039     0.441   0.748585E-02
     0.039     0.449   0.696822E-02
     0.039     0.457   0.648489E-02
     0.039     0.465   0.602620E-02
     0.039     0.472   0.559885E-02
     0.039     0.480   0.519391E-02
     0.039     0.488   0.481746E-02
     0.039     0.496   0.446131E-02
     0.039     0.504   0.413096E-02
     0.039     0.512   0.381890E-02
     0.039     0.520   0.353010E-02
     0.039     0.528   0.325772E-02
     0.039     0.535   0.300620E-02
     0.039     0.543   0.276935E-02
     0.039     0.551   0.255113E-02
     0.039     0.559   0.234597E-02
     0.039     0.567   0.215738E-02
     0.039     0.575   0.198034E-02
     0.039     0.583   0.181797E-02
     0.039     0.591   0.166579E-02
     0.039     0.598   0.152654E-02
     0.039     0.606   0.139624E-02
     0.039     0.614   0.127728E-02
     0.039     0.622   0.116614E-02
     0.039     0.630   0.106490E-02
     0.039     0.638   0.970469E-03
     0.039     0.646   0.884651E-03
     0.039     0.654   0.804731E-03
     0.039     0.661   0.732266E-03
     0.039     0.669   0.664890E-03
     0.039     0.677   0.603938E-03
     0.039     0.685   0.547359E-03
     0.039     0.693   0.496292E-03
     0.039     0.701   0.448964E-03
     0.039     0.709   0.406345E-03
     0.039     0.717   0.366911E-03
     0.039     0.724   0.331482E-03
     0.039     0.732   0.298753E-03
     0.039     0.740   0.269415E-03
     0.039     0.748   0.242356E-03
     0.039     0.756   0.218157E-03
     0.039     0.764   0.195873E-03
     0.039     0.772   0.175988E-03
     0.039     0.780   0.157707E-03
     0.039     0.787   0.141430E-03
     0.039     0.795   0.126489E-03
     0.039     0.803   0.113215E-03
     0.039     0.811   0.101048E-03
     0.039     0.819   0.902612E-04
     0.039     0.827   0.803878E-04
     0.039     0.835   0.716510E-04
     0.039     0.843   0.636640E-04
     0.039     0.850   0.566079E-04
     0.039     0.858   0.501637E-04
     0.039     0.866   0.444772E-04
     0.039     0.874   0.392868E-04
     0.039     0.882   0.347085E-04
     0.039     0.890   0.305290E-04
     0.039     0.898   0.268393E-04
     0.039     0.906   0.234668E-04
     0.039     0.913   0.204812E-04
     0.039     0.921   0.177439E-04
     0.039     0.929   0.153065E-04
     0.039     0.937   0.130589E-04
     0.039     0.945   0.110367E-04
     0.039     0.953   0.915410E-05
     0.039     0.961   0.743235E-05
     0.039     0.969   0.580598E-05
     0.039     0.976   0.428300E-05
     0.039     0.984   0.281556E-05
     0.039     0.992   0.139866E-05
     0.039     1.000    0.00000    
     0.047     0.000   0.147877    
     0.047     0.008   0.143091    
     0.047     0.016   0.138395    
     0.047     0.024   0.133790    
     0.047     0.031   0.129273    
     0.047     0.039   0.124849    
     0.047     0.047   0.120512    
     0.047     0.055   0.116269    
     0.047     0.063   0.112113    
     0.047     0.071   0.108050    
     0.047     0.079   0.104074    
     0.047     0.087   0.100192    
     0.047     0.094   0.963963E-01
     0.047     0.102   0.926956E-01
     0.047     0.110   0.890795E-01
     0.047     0.118   0.855592E-01
     0.047     0.126   0.821226E-01
     0.047     0.134   0.787821E-01
     0.047     0.142   0.755240E-01
     0.047     0.150   0.723620E-01
     0.047     0.157   0.692813E-01
     0.047     0.165   0.662962E-01
     0.047     0.173   0.633910E-01
     0.047     0.181   0.605807E-01
     0.047     0.189   0.578486E-01
     0.047     0.197   0.552104E-01
     0.047     0.205   0.526485E-01
     0.047     0.213   0.501791E-01
     0.047     0.220   0.477841E-01
     0.047     0.228   0.454797E-01
     0.047     0.236   0.432474E-01
     0.047     0.244   0.411037E-01
     0.047     0.252   0.390297E-01
     0.047     0.260   0.370417E-01
     0.047     0.268   0.351209E-01
     0.047     0.276   0.332834E-01
     0.047     0.283   0.315103E-01
     0.047     0.291   0.298174E-01
     0.047     0.299   0.281861E-01
     0.047     0.307   0.266317E-01
     0.047     0.315   0.251359E-01
     0.047     0.323   0.237136E-01
     0.047     0.331   0.223468E-01
     0.047     0.339   0.210498E-01
     0.047     0.346   0.198051E-01
     0.047     0.354   0.186265E-01
     0.047     0.362   0.174971E-01
     0.047     0.370   0.164299E-01
     0.047     0.378   0.154088E-01
     0.047     0.386   0.144459E-01
     0.047     0.394   0.135259E-01
     0.047     0.402   0.126603E-01
     0.047     0.409   0.118344E-01
     0.047     0.417   0.110591E-01
     0.047     0.425   0.103204E-01
     0.047     0.433   0.962847E-02
     0.047     0.441   0.897028E-02
     0.047     0.449   0.835503E-02
     0.047     0.457   0.777069E-02
     0.047     0.465   0.722567E-02
     0.047     0.472   0.670883E-02
     0.047     0.480   0.622784E-02
     0.047     0.488   0.577241E-02