Title="Temperature Data"
Variables="X","Y","T"
 
Zone I=    50, J=    50, F=POINT
     0.000     0.000    0.00000    
     0.000     0.020    0.00000    
     0.000     0.041    0.00000    
     0.000     0.061    0.00000    
     0.000     0.082    0.00000    
     0.000     0.102    0.00000    
     0.000     0.122    0.00000    
     0.000     0.143    0.00000    
     0.000     0.163    0.00000    
     0.000     0.184    0.00000    
     0.000     0.204    0.00000    
     0.000     0.224    0.00000    
     0.000     0.245    0.00000    
     0.000     0.265    0.00000    
     0.000     0.286    0.00000    
     0.000     0.306    0.00000    
     0.000     0.327    0.00000    
     0.000     0.347    0.00000    
     0.000     0.367    0.00000    
     0.000     0.388    0.00000    
     0.000     0.408    0.00000    
     0.000     0.429    0.00000    
     0.000     0.449    0.00000    
     0.000     0.469    0.00000    
     0.000     0.490    0.00000    
     0.000     0.510    0.00000    
     0.000     0.531    0.00000    
     0.000     0.551    0.00000    
     0.000     0.571    0.00000    
     0.000     0.592    0.00000    
     0.000     0.612    0.00000    
     0.000     0.633    0.00000    
     0.000     0.653    0.00000    
     0.000     0.673    0.00000    
     0.000     0.694    0.00000    
     0.000     0.714    0.00000    
     0.000     0.735    0.00000    
     0.000     0.755    0.00000    
     0.000     0.776    0.00000    
     0.000     0.796    0.00000    
     0.000     0.816    0.00000    
     0.000     0.837    0.00000    
     0.000     0.857    0.00000    
     0.000     0.878    0.00000    
     0.000     0.898    0.00000    
     0.000     0.918    0.00000    
     0.000     0.939    0.00000    
     0.000     0.959    0.00000    
     0.000     0.980    0.00000    
     0.000     1.000    0.00000    
     0.020     0.000   0.640702E-01
     0.020     0.020   0.558146E-01
     0.020     0.041   0.479950E-01
     0.020     0.061   0.407607E-01
     0.020     0.082   0.342192E-01
     0.020     0.102   0.284291E-01
     0.020     0.122   0.234016E-01
     0.020     0.143   0.191095E-01
     0.020     0.163   0.154981E-01
     0.020     0.184   0.124967E-01
     0.020     0.204   0.100281E-01
     0.020     0.224   0.801496E-02
     0.020     0.245   0.638485E-02
     0.020     0.265   0.507248E-02
     0.020     0.286   0.402089E-02
     0.020     0.306   0.318147E-02
     0.020     0.327   0.251348E-02
     0.020     0.347   0.198323E-02
     0.020     0.367   0.156317E-02
     0.020     0.388   0.123095E-02
     0.020     0.408   0.968551E-03
     0.020     0.429   0.761527E-03
     0.020     0.449   0.598347E-03
     0.020     0.469   0.469822E-03
     0.020     0.490   0.368667E-03
     0.020     0.510   0.289098E-03
     0.020     0.531   0.226550E-03
     0.020     0.551   0.177406E-03
     0.020     0.571   0.138818E-03
     0.020     0.592   0.108533E-03
     0.020     0.612   0.847810E-04
     0.020     0.633   0.661631E-04
     0.020     0.653   0.515812E-04
     0.020     0.673   0.401671E-04
     0.020     0.694   0.312412E-04
     0.020     0.714   0.242657E-04
     0.020     0.735   0.188203E-04
     0.020     0.755   0.145721E-04
     0.020     0.776   0.112616E-04
     0.020     0.796   0.868279E-05
     0.020     0.816   0.667534E-05
     0.020     0.837   0.511173E-05
     0.020     0.857   0.389265E-05
     0.020     0.878   0.293866E-05
     0.020     0.898   0.218753E-05
     0.020     0.918   0.158880E-05
     0.020     0.939   0.110210E-05
     0.020     0.959   0.693627E-06
     0.020     0.980   0.334807E-06
     0.020     1.000    0.00000    
     0.041     0.000   0.127877    
     0.041     0.020   0.111193    
     0.041     0.041   0.954049E-01
     0.041     0.061   0.808286E-01
     0.041     0.082   0.676873E-01
     0.041     0.102   0.560958E-01
     0.041     0.122   0.460682E-01
     0.041     0.143   0.375385E-01
     0.041     0.163   0.303865E-01
     0.041     0.184   0.244612E-01
     0.041     0.204   0.196012E-01
     0.041     0.224   0.156474E-01
     0.041     0.245   0.124524E-01
     0.041     0.265   0.988471E-02
     0.041     0.286   0.783015E-02
     0.041     0.306   0.619205E-02
     0.041     0.327   0.488974E-02
     0.041     0.347   0.385679E-02
     0.041     0.367   0.303901E-02
     0.041     0.388   0.239257E-02
     0.041     0.408   0.188219E-02
     0.041     0.429   0.147966E-02
     0.041     0.449   0.116246E-02
     0.041     0.469   0.912680E-03
     0.041     0.490   0.716116E-03
     0.041     0.510   0.561529E-03
     0.041     0.531   0.440014E-03
     0.041     0.551   0.344555E-03
     0.041     0.571   0.269598E-03
     0.041     0.592   0.210779E-03
     0.041     0.612   0.164646E-03
     0.041     0.633   0.128490E-03
     0.041     0.653   0.100168E-03
     0.041     0.673   0.780037E-04
     0.041     0.694   0.606679E-04
     0.041     0.714   0.471230E-04
     0.041     0.735   0.365470E-04
     0.041     0.755   0.282984E-04
     0.041     0.776   0.218686E-04
     0.041     0.796   0.168615E-04
     0.041     0.816   0.129625E-04
     0.041     0.837   0.992672E-05
     0.041     0.857   0.755888E-05
     0.041     0.878   0.570674E-05
     0.041     0.898   0.424779E-05
     0.041     0.918   0.308538E-05
     0.041     0.939   0.214008E-05
     0.041     0.959   0.134700E-05
     0.041     0.980   0.650132E-06
     0.041     1.000    0.00000    
     0.061     0.000   0.191159    
     0.061     0.020   0.165676    
     0.061     0.041   0.141603    
     0.061     0.061   0.119462    
     0.061     0.082   0.996061E-01
     0.061     0.102   0.821992E-01
     0.061     0.122   0.672375E-01
     0.061     0.143   0.545908E-01
     0.061     0.163   0.440488E-01
     0.061     0.184   0.353614E-01
     0.061     0.204   0.282688E-01
     0.061     0.224   0.225220E-01
     0.061     0.245   0.178938E-01
     0.061     0.265   0.141848E-01
     0.061     0.286   0.112240E-01
     0.061     0.306   0.886786E-02
     0.061     0.327   0.699767E-02
     0.061     0.347   0.551617E-02
     0.061     0.367   0.434450E-02
     0.061     0.388   0.341906E-02
     0.061     0.408   0.268891E-02
     0.061     0.429   0.211334E-02
     0.061     0.449   0.165998E-02
     0.061     0.469   0.130309E-02
     0.061     0.490   0.102233E-02
     0.061     0.510   0.801555E-03
     0.061     0.531   0.628056E-03
     0.061     0.551   0.491766E-03
     0.061     0.571   0.384770E-03
     0.061     0.592   0.300808E-03
     0.061     0.612   0.234967E-03
     0.061     0.633   0.183361E-03
     0.061     0.653   0.142945E-03
     0.061     0.673   0.111311E-03
     0.061     0.694   0.865736E-04
     0.061     0.714   0.672424E-04
     0.061     0.735   0.521521E-04
     0.061     0.755   0.403798E-04
     0.061     0.776   0.312060E-04
     0.061     0.796   0.240599E-04
     0.061     0.816   0.184972E-04
     0.061     0.837   0.141644E-04
     0.061     0.857   0.107863E-04
     0.061     0.878   0.814285E-05
     0.061     0.898   0.606150E-05
     0.061     0.918   0.440245E-05
     0.061     0.939   0.305386E-05
     0.061     0.959   0.192199E-05
     0.061     0.980   0.927727E-06
     0.061     1.000    0.00000    
     0.082     0.000   0.253655    
     0.082     0.020   0.218749    
     0.082     0.041   0.185869    
     0.082     0.061   0.155811    
     0.082     0.082   0.129076    
     0.082     0.102   0.105858    
     0.082     0.122   0.860927E-01
     0.082     0.143   0.695393E-01
     0.082     0.163   0.558577E-01
     0.082     0.184   0.446679E-01
     0.082     0.204   0.355921E-01
     0.082     0.224   0.282793E-01
     0.082     0.245   0.224175E-01
     0.082     0.265   0.177381E-01
     0.082     0.286   0.140146E-01
     0.082     0.306   0.110592E-01
     0.082     0.327   0.871836E-02
     0.082     0.347   0.686718E-02
     0.082     0.367   0.540514E-02
     0.082     0.388   0.425164E-02
     0.082     0.408   0.334234E-02
     0.082     0.429   0.262607E-02
     0.082     0.449   0.206218E-02
     0.082     0.469   0.161850E-02
     0.082     0.490   0.126957E-02
     0.082     0.510   0.995286E-03
     0.082     0.531   0.779767E-03
     0.082     0.551   0.610513E-03
     0.082     0.571   0.477644E-03
     0.082     0.592   0.373402E-03
     0.082     0.612   0.291655E-03
     0.082     0.633   0.227595E-03
     0.082     0.653   0.177421E-03
     0.082     0.673   0.138157E-03
     0.082     0.694   0.107450E-03
     0.082     0.714   0.834584E-04
     0.082     0.735   0.647263E-04
     0.082     0.755   0.501169E-04
     0.082     0.776   0.387292E-04
     0.082     0.796   0.298614E-04
     0.082     0.816   0.229562E-04
     0.082     0.837   0.175798E-04
     0.082     0.857   0.133864E-04
     0.082     0.878   0.101063E-04
     0.082     0.898   0.752257E-05
     0.082     0.918   0.546400E-05
     0.082     0.939   0.378994E-05
     0.082     0.959   0.238544E-05
     0.082     0.980   0.115134E-05
     0.082     1.000    0.00000    
     0.102     0.000   0.315108    
     0.102     0.020   0.269798    
     0.102     0.041   0.227314    
     0.102     0.061   0.188837    
     0.102     0.082   0.155031    
     0.102     0.102   0.126066    
     0.102     0.122   0.101737    
     0.102     0.143   0.816175E-01
     0.102     0.163   0.651762E-01
     0.102     0.184   0.518620E-01
     0.102     0.204   0.411541E-01
     0.102     0.224   0.325872E-01
     0.102     0.245   0.257606E-01
     0.102     0.265   0.203373E-01
     0.102     0.286   0.160388E-01
     0.102     0.306   0.126380E-01
     0.102     0.327   0.995118E-02
     0.102     0.347   0.783083E-02
     0.102     0.367   0.615898E-02
     0.102     0.388   0.484169E-02
     0.102     0.408   0.380439E-02
     0.102     0.429   0.298795E-02
     0.102     0.449   0.234565E-02
     0.102     0.469   0.184054E-02
     0.102     0.490   0.144347E-02
     0.102     0.510   0.113143E-02
     0.102     0.531   0.886334E-03
     0.102     0.551   0.693876E-03
     0.102     0.571   0.542829E-03
     0.102     0.592   0.424330E-03
     0.102     0.612   0.331422E-03
     0.102     0.633   0.258614E-03
     0.102     0.653   0.201599E-03
     0.102     0.673   0.156978E-03
     0.102     0.694   0.122088E-03
     0.102     0.714   0.948239E-04
     0.102     0.735   0.735423E-04
     0.102     0.755   0.569405E-04
     0.102     0.776   0.440037E-04
     0.102     0.796   0.339265E-04
     0.102     0.816   0.260824E-04
     0.102     0.837   0.199727E-04
     0.102     0.857   0.152093E-04
     0.102     0.878   0.114818E-04
     0.102     0.898   0.854699E-05
     0.102     0.918   0.620763E-05
     0.102     0.939   0.430605E-05
     0.102     0.959   0.271008E-05
     0.102     0.980   0.130813E-05
     0.102     1.000    0.00000    
     0.122     0.000   0.375267    
     0.122     0.020   0.318022    
     0.122     0.041   0.264751    
     0.122     0.061   0.217192    
     0.122     0.082   0.176147    
     0.122     0.102   0.141637    
     0.122     0.122   0.113173    
     0.122     0.143   0.900190E-01
     0.122     0.163   0.713693E-01
     0.122     0.184   0.564515E-01
     0.122     0.204   0.445768E-01
     0.122     0.224   0.351569E-01
     0.122     0.245   0.277025E-01
     0.122     0.265   0.218136E-01
     0.122     0.286   0.171673E-01
     0.122     0.306   0.135048E-01
     0.122     0.327   0.106196E-01
     0.122     0.347   0.834801E-02
     0.122     0.367   0.656022E-02
     0.122     0.388   0.515368E-02
     0.122     0.408   0.404738E-02
     0.122     0.429   0.317747E-02
     0.122     0.449   0.249359E-02
     0.122     0.469   0.195610E-02
     0.122     0.490   0.153377E-02
     0.122     0.510   0.120203E-02
     0.122     0.531   0.941502E-03
     0.122     0.551   0.736994E-03
     0.122     0.571   0.576507E-03
     0.122     0.592   0.450631E-03
     0.122     0.612   0.351942E-03
     0.122     0.633   0.274618E-03
     0.122     0.653   0.214064E-03
     0.122     0.673   0.166683E-03
     0.122     0.694   0.129630E-03
     0.122     0.714   0.100683E-03
     0.122     0.735   0.780829E-04
     0.122     0.755   0.604576E-04
     0.122     0.776   0.467195E-04
     0.122     0.796   0.360217E-04
     0.122     0.816   0.276917E-04
     0.122     0.837   0.212060E-04
     0.122     0.857   0.161476E-04
     0.122     0.878   0.121908E-04
     0.122     0.898   0.907414E-05
     0.122     0.918   0.659096E-05
     0.122     0.939   0.457161E-05
     0.122     0.959   0.287743E-05
     0.122     0.980   0.138879E-05
     0.122     1.000    0.00000    
     0.143     0.000   0.433884    
     0.143     0.020   0.362271    
     0.143     0.041   0.296479    
     0.143     0.061   0.239032    
     0.143     0.082   0.190731    
     0.143     0.102   0.151163    
     0.143     0.122   0.119300    
     0.143     0.143   0.939179E-01
     0.143     0.163   0.738323E-01
     0.143     0.184   0.579996E-01
     0.143     0.204   0.455467E-01
     0.143     0.224   0.357632E-01
     0.143     0.245   0.280809E-01
     0.143     0.265   0.220496E-01
     0.143     0.286   0.173144E-01
     0.143     0.306   0.135964E-01
     0.143     0.327   0.106766E-01
     0.143     0.347   0.838352E-02
     0.143     0.367   0.658233E-02
     0.143     0.388   0.516743E-02
     0.143     0.408   0.405595E-02
     0.143     0.429   0.318279E-02
     0.143     0.449   0.249691E-02
     0.143     0.469   0.195817E-02
     0.143     0.490   0.153506E-02
     0.143     0.510   0.120282E-02
     0.143     0.531   0.942004E-03
     0.143     0.551   0.737300E-03
     0.143     0.571   0.576703E-03
     0.143     0.592   0.450749E-03
     0.143     0.612   0.352019E-03
     0.143     0.633   0.274662E-03
     0.143     0.653   0.214096E-03
     0.143     0.673   0.166699E-03
     0.143     0.694   0.129643E-03
     0.143     0.714   0.100689E-03
     0.143     0.735   0.780885E-04
     0.143     0.755   0.604592E-04
     0.143     0.776   0.467221E-04
     0.143     0.796   0.360219E-04
     0.143     0.816   0.276930E-04
     0.143     0.837   0.212059E-04
     0.143     0.857   0.161483E-04
     0.143     0.878   0.121906E-04
     0.143     0.898   0.907455E-05
     0.143     0.918   0.659078E-05
     0.143     0.939   0.457182E-05
     0.143     0.959   0.287734E-05
     0.143     0.980   0.138886E-05
     0.143     1.000    0.00000    
     0.163     0.000   0.490718    
     0.163     0.020   0.400701    
     0.163     0.041   0.319861    
     0.163     0.061   0.251727    
     0.163     0.082   0.196581    
     0.163     0.102   0.152985    
     0.163     0.122   0.118947    
     0.163     0.143   0.925221E-01
     0.163     0.163   0.720439E-01
     0.163     0.184   0.561699E-01
     0.163     0.204   0.438491E-01
     0.163     0.224   0.342703E-01
     0.163     0.245   0.268105E-01
     0.163     0.265   0.209917E-01
     0.163     0.286   0.164464E-01
     0.163     0.306   0.128919E-01
     0.163     0.327   0.101093E-01
     0.163     0.347   0.792925E-02
     0.163     0.367   0.622024E-02
     0.163     0.388   0.487983E-02
     0.163     0.408   0.382812E-02
     0.163     0.429   0.300273E-02
     0.163     0.449   0.235484E-02
     0.163     0.469   0.184626E-02
     0.163     0.490   0.144702E-02
     0.163     0.510   0.113366E-02
     0.163     0.531   0.887711E-03
     0.163     0.551   0.694738E-03
     0.163     0.571   0.543361E-03
     0.163     0.592   0.424665E-03
     0.163     0.612   0.331627E-03
     0.163     0.633   0.258745E-03
     0.163     0.653   0.201678E-03
     0.163     0.673   0.157030E-03
     0.163     0.694   0.122117E-03
     0.163     0.714   0.948447E-04
     0.163     0.735   0.735531E-04
     0.163     0.755   0.569490E-04
     0.163     0.776   0.440074E-04
     0.163     0.796   0.339302E-04
     0.163     0.816   0.260835E-04
     0.163     0.837   0.199744E-04
     0.163     0.857   0.152096E-04
     0.163     0.878   0.114826E-04
     0.163     0.898   0.854696E-05
     0.163     0.918   0.620803E-05
     0.163     0.939   0.430599E-05
     0.163     0.959   0.271024E-05
     0.163     0.980   0.130810E-05
     0.163     1.000    0.00000    
     0.184     0.000   0.545535    
     0.184     0.020   0.429955    
     0.184     0.041   0.330538    
     0.184     0.061   0.251435    
     0.184     0.082   0.190882    
     0.184     0.102   0.145252    
     0.184     0.122   0.110983    
     0.184     0.143   0.851807E-01
     0.184     0.163   0.656530E-01
     0.184     0.184   0.507887E-01
     0.184     0.204   0.394115E-01
     0.184     0.224   0.306604E-01
     0.184     0.245   0.239011E-01
     0.184     0.265   0.186621E-01
     0.184     0.286   0.145899E-01
     0.184     0.306   0.114175E-01
     0.184     0.327   0.894137E-02
     0.184     0.347   0.700599E-02
     0.184     0.367   0.549155E-02
     0.184     0.388   0.430542E-02
     0.184     0.408   0.337582E-02
     0.184     0.429   0.264690E-02
     0.184     0.449   0.207515E-02
     0.184     0.469   0.162657E-02
     0.184     0.490   0.127460E-02
     0.184     0.510   0.998409E-03
     0.184     0.531   0.781717E-03
     0.184     0.551   0.611721E-03
     0.184     0.571   0.478401E-03
     0.184     0.592   0.373868E-03
     0.184     0.612   0.291949E-03
     0.184     0.633   0.227775E-03
     0.184     0.653   0.177536E-03
     0.184     0.673   0.138226E-03
     0.184     0.694   0.107495E-03
     0.184     0.714   0.834844E-04
     0.184     0.735   0.647443E-04
     0.184     0.755   0.501265E-04
     0.184     0.776   0.387365E-04
     0.184     0.796   0.298648E-04
     0.184     0.816   0.229593E-04
     0.184     0.837   0.175809E-04
     0.184     0.857   0.133878E-04
     0.184     0.878   0.101066E-04
     0.184     0.898   0.752321E-05
     0.184     0.918   0.546403E-05
     0.184     0.939   0.379022E-05
     0.184     0.959   0.238542E-05
     0.184     0.980   0.115142E-05
     0.184     1.000    0.00000    
     0.204     0.000   0.598111    
     0.204     0.020   0.443047    
     0.204     0.041   0.320902    
     0.204     0.061   0.232593    
     0.204     0.082   0.170261    
     0.204     0.102   0.126157    
     0.204     0.122   0.945546E-01
     0.204     0.143   0.715658E-01
     0.204     0.163   0.546001E-01
     0.204     0.184   0.419220E-01
     0.204     0.204   0.323493E-01
     0.204     0.224   0.250604E-01
     0.204     0.245   0.194732E-01
     0.204     0.265   0.151676E-01
     0.204     0.286   0.118356E-01
     0.204     0.306   0.924848E-02
     0.204     0.327   0.723455E-02
     0.204     0.347   0.566360E-02
     0.204     0.367   0.443625E-02
     0.204     0.388   0.347617E-02
     0.204     0.408   0.272445E-02
     0.204     0.429   0.213547E-02
     0.204     0.449   0.167374E-02
     0.204     0.469   0.131166E-02
     0.204     0.490   0.102766E-02
     0.204     0.510   0.804878E-03
     0.204     0.531   0.630119E-03
     0.204     0.551   0.493055E-03
     0.204     0.571   0.385568E-03
     0.204     0.592   0.301308E-03
     0.204     0.612   0.235275E-03
     0.204     0.633   0.183555E-03
     0.204     0.653   0.143063E-03
     0.204     0.673   0.111387E-03
     0.204     0.694   0.866190E-04
     0.204     0.714   0.672724E-04
     0.204     0.735   0.521693E-04
     0.204     0.755   0.403918E-04
     0.204     0.776   0.312123E-04
     0.204     0.796   0.240648E-04
     0.204     0.816   0.184994E-04
     0.204     0.837   0.141665E-04
     0.204     0.857   0.107871E-04
     0.204     0.878   0.814376E-05
     0.204     0.898   0.606169E-05
     0.204     0.918   0.440286E-05
     0.204     0.939   0.305389E-05
     0.204     0.959   0.192215E-05
     0.204     0.980   0.927727E-06
     0.204     1.000    0.00000    
     0.224     0.000   0.648228    
     0.224     0.020   0.423221    
     0.224     0.041   0.277429    
     0.224     0.061   0.187774    
     0.224     0.082   0.131413    
     0.224     0.102   0.945601E-01
     0.224     0.122   0.695137E-01
     0.224     0.143   0.519289E-01
     0.224     0.163   0.392607E-01
     0.224     0.184   0.299511E-01
     0.224     0.204   0.230045E-01
     0.224     0.224   0.177601E-01
     0.224     0.245   0.137652E-01
     0.224     0.265   0.107008E-01
     0.224     0.286   0.833773E-02
     0.224     0.306   0.650781E-02
     0.224     0.327   0.508621E-02
     0.224     0.347   0.397904E-02
     0.224     0.367   0.311509E-02
     0.224     0.388   0.243992E-02
     0.224     0.408   0.191166E-02
     0.224     0.429   0.149800E-02
     0.224     0.449   0.117388E-02
     0.224     0.469   0.919782E-03
     0.224     0.490   0.720540E-03
     0.224     0.510   0.564279E-03
     0.224     0.531   0.441729E-03
     0.224     0.551   0.345619E-03
     0.224     0.571   0.270263E-03
     0.224     0.592   0.211191E-03
     0.224     0.612   0.164904E-03
     0.224     0.633   0.128649E-03
     0.224     0.653   0.100269E-03
     0.224     0.673   0.780648E-04
     0.224     0.694   0.607073E-04
     0.224     0.714   0.471463E-04
     0.224     0.735   0.365625E-04
     0.224     0.755   0.283072E-04
     0.224     0.776   0.218748E-04
     0.224     0.796   0.168647E-04
     0.224     0.816   0.129651E-04
     0.224     0.837   0.992784E-05
     0.224     0.857   0.755998E-05
     0.224     0.878   0.570709E-05
     0.224     0.898   0.424827E-05
     0.224     0.918   0.308547E-05
     0.224     0.939   0.214029E-05
     0.224     0.959   0.134702E-05
     0.224     0.980   0.650189E-06
     0.224     1.000    0.00000    
     0.245     0.000   0.695683    
     0.245     0.020   0.324180    
     0.245     0.041   0.177818    
     0.245     0.061   0.109663    
     0.245     0.082   0.730583E-01
     0.245     0.102   0.511574E-01
     0.245     0.122   0.370117E-01
     0.245     0.143   0.273759E-01
     0.245     0.163   0.205636E-01
     0.245     0.184   0.156182E-01
     0.245     0.204   0.119584E-01
     0.245     0.224   0.921137E-02
     0.245     0.245   0.712747E-02
     0.245     0.265   0.553388E-02
     0.245     0.286   0.430774E-02
     0.245     0.306   0.335987E-02
     0.245     0.327   0.262446E-02
     0.245     0.347   0.205228E-02
     0.245     0.367   0.160614E-02
     0.245     0.388   0.125769E-02
     0.245     0.408   0.985191E-03
     0.245     0.429   0.771885E-03
     0.245     0.449   0.604791E-03
     0.245     0.469   0.473835E-03
     0.245     0.490   0.371162E-03
     0.245     0.510   0.290654E-03
     0.245     0.531   0.227517E-03
     0.245     0.551   0.178009E-03
     0.245     0.571   0.139191E-03
     0.245     0.592   0.108767E-03
     0.245     0.612   0.849255E-04
     0.245     0.633   0.662540E-04
     0.245     0.653   0.516369E-04
     0.245     0.673   0.402025E-04
     0.245     0.694   0.312626E-04
     0.245     0.714   0.242796E-04
     0.245     0.735   0.188285E-04
     0.245     0.755   0.145777E-04
     0.245     0.776   0.112647E-04
     0.245     0.796   0.868502E-05
     0.245     0.816   0.667644E-05
     0.245     0.837   0.511265E-05
     0.245     0.857   0.389302E-05
     0.245     0.878   0.293905E-05
     0.245     0.898   0.218764E-05
     0.245     0.918   0.158897E-05
     0.245     0.939   0.110213E-05
     0.245     0.959   0.693694E-06
     0.245     0.980   0.334811E-06
     0.245     1.000    0.00000    
     0.265     0.000   0.740278    
     0.265     0.020   0.380846    
     0.265     0.041   0.233514    
     0.265     0.061   0.160347    
     0.265     0.082   0.117611    
     0.265     0.102   0.895410E-01
     0.265     0.122   0.696289E-01
     0.265     0.143   0.548092E-01
     0.265     0.163   0.434506E-01
     0.265     0.184   0.345880E-01
     0.265     0.204   0.275977E-01
     0.265     0.224   0.220484E-01
     0.265     0.245   0.176261E-01
     0.265     0.265   0.140942E-01
     0.265     0.286   0.112700E-01
     0.265     0.306   0.901029E-02
     0.265     0.327   0.720181E-02
     0.265     0.347   0.575444E-02
     0.265     0.367   0.459619E-02
     0.265     0.388   0.366952E-02
     0.265     0.408   0.292828E-02
     0.265     0.429   0.233557E-02
     0.265     0.449   0.186175E-02
     0.265     0.469   0.148314E-02
     0.265     0.490   0.118070E-02
     0.265     0.510   0.939240E-03
     0.265     0.531   0.746535E-03
     0.265     0.551   0.592842E-03
     0.265     0.571   0.470323E-03
     0.265     0.592   0.372735E-03
     0.265     0.612   0.295049E-03
     0.265     0.633   0.233270E-03
     0.265     0.653   0.184174E-03
     0.265     0.673   0.145205E-03
     0.265     0.694   0.114299E-03
     0.265     0.714   0.898220E-04
     0.265     0.735   0.704537E-04
     0.265     0.755   0.551512E-04
     0.265     0.776   0.430701E-04
     0.265     0.796   0.335454E-04
     0.265     0.816   0.260375E-04
     0.265     0.837   0.201221E-04
     0.265     0.857   0.154533E-04
     0.265     0.878   0.117588E-04
     0.265     0.898   0.881437E-05
     0.265     0.918   0.644152E-05
     0.265     0.939   0.449027E-05
     0.265     0.959   0.283678E-05
     0.265     0.980   0.137231E-05
     0.265     1.000    0.00000    
     0.286     0.000   0.781831    
     0.286     0.020   0.549594    
     0.286     0.041   0.392864    
     0.286     0.061   0.290264    
     0.286     0.082   0.220558    
     0.286     0.102   0.170925    
     0.286     0.122   0.134167    
     0.286     0.143   0.106159    
     0.286     0.163   0.844074E-01
     0.286     0.184   0.673058E-01
     0.286     0.204   0.537567E-01
     0.286     0.224   0.429722E-01
     0.286     0.245   0.343645E-01
     0.286     0.265   0.274834E-01
     0.286     0.286   0.219782E-01
     0.286     0.306   0.175720E-01
     0.286     0.327   0.140452E-01
     0.286     0.347   0.112224E-01
     0.286     0.367   0.896340E-02
     0.286     0.388   0.715605E-02
     0.286     0.408   0.571045E-02
     0.286     0.429   0.455449E-02
     0.286     0.449   0.363048E-02
     0.286     0.469   0.289211E-02
     0.286     0.490   0.230235E-02
     0.286     0.510   0.183146E-02
     0.286     0.531   0.145571E-02
     0.286     0.551   0.115599E-02
     0.286     0.571   0.917096E-03
     0.286     0.592   0.726788E-03
     0.286     0.612   0.575320E-03
     0.286     0.633   0.454843E-03
     0.286     0.653   0.359122E-03
     0.286     0.673   0.283127E-03
     0.286     0.694   0.222872E-03
     0.286     0.714   0.175138E-03
     0.286     0.735   0.137378E-03
     0.286     0.755   0.107535E-03
     0.286     0.776   0.839831E-04
     0.286     0.796   0.654070E-04
     0.286     0.816   0.507712E-04
     0.286     0.837   0.392339E-04
     0.286     0.857   0.301330E-04
     0.286     0.878   0.229270E-04
     0.286     0.898   0.171875E-04
     0.286     0.918   0.125595E-04
     0.286     0.939   0.875580E-05
     0.286     0.959   0.553105E-05
     0.286     0.980   0.267595E-05
     0.286     1.000    0.00000    
     0.306     0.000   0.820172    
     0.306     0.020   0.642835    
     0.306     0.041   0.498083    
     0.306     0.061   0.387289    
     0.306     0.082   0.303434    
     0.306     0.102   0.239437    
     0.306     0.122   0.189958    
     0.306     0.143   0.151257    
     0.306     0.163   0.120718    
     0.306     0.184   0.964753E-01
     0.306     0.204   0.771560E-01
     0.306     0.224   0.617242E-01
     0.306     0.245   0.493812E-01
     0.306     0.265   0.395020E-01
     0.306     0.286   0.315925E-01
     0.306     0.306   0.252597E-01
     0.306     0.327   0.201897E-01
     0.306     0.347   0.161316E-01
     0.306     0.367   0.128839E-01
     0.306     0.388   0.102857E-01
     0.306     0.408   0.820756E-02
     0.306     0.429   0.654594E-02
     0.306     0.449   0.521773E-02
     0.306     0.469   0.415647E-02
     0.306     0.490   0.330879E-02
     0.306     0.510   0.263204E-02
     0.306     0.531   0.209197E-02
     0.306     0.551   0.166125E-02
     0.306     0.571   0.131791E-02
     0.306     0.592   0.104444E-02
     0.306     0.612   0.826749E-03
     0.306     0.633   0.653633E-03
     0.306     0.653   0.516060E-03
     0.306     0.673   0.406865E-03
     0.306     0.694   0.320265E-03
     0.306     0.714   0.251680E-03
     0.306     0.735   0.197410E-03
     0.306     0.755   0.154532E-03
     0.306     0.776   0.120681E-03
     0.306     0.796   0.939930E-04
     0.306     0.816   0.729561E-04
     0.306     0.837   0.563812E-04
     0.306     0.857   0.432995E-04
     0.306     0.878   0.329474E-04
     0.306     0.898   0.246974E-04
     0.306     0.918   0.180488E-04
     0.306     0.939   0.125815E-04
     0.306     0.959   0.794851E-05
     0.306     0.980   0.384514E-05
     0.306     1.000    0.00000    
     0.327     0.000   0.855143    
     0.327     0.020   0.703492    
     0.327     0.041   0.569347    
     0.327     0.061   0.457378    
     0.327     0.082   0.366457    
     0.327     0.102   0.293433    
     0.327     0.122   0.234978    
     0.327     0.143   0.188197    
     0.327     0.163   0.150739    
     0.327     0.184   0.120728    
     0.327     0.204   0.966744E-01
     0.327     0.224   0.773944E-01
     0.327     0.245   0.619415E-01
     0.327     0.265   0.495583E-01
     0.327     0.286   0.396377E-01
     0.327     0.306   0.316920E-01
     0.327     0.327   0.253300E-01
     0.327     0.347   0.202375E-01
     0.327     0.367   0.161623E-01
     0.327     0.388   0.129022E-01
     0.327     0.408   0.102949E-01
     0.327     0.429   0.821027E-02
     0.327     0.449   0.654413E-02
     0.327     0.469   0.521287E-02
     0.327     0.490   0.414966E-02
     0.327     0.510   0.330081E-02
     0.327     0.531   0.262350E-02
     0.327     0.551   0.208328E-02
     0.327     0.571   0.165272E-02
     0.327     0.592   0.130974E-02
     0.327     0.612   0.103676E-02