Title="Temperature Data"
Variables="X","Y","T"
 
Zone I=    64, J=    64, F=POINT
     0.000     0.000   0.693777-309
     0.000     0.016   0.693777-309
     0.000     0.032    0.00000    
     0.000     0.048    0.00000    
     0.000     0.063   0.601347-153
     0.000     0.079   0.604274-153
     0.000     0.095   0.466724E-61
     0.000     0.111   0.117633E-46
     0.000     0.127   0.164286-258
     0.000     0.143   0.290700E-32
     0.000     0.159   0.696312E-76
     0.000     0.175   0.125766E-75
     0.000     0.190   0.292796E+26
     0.000     0.206   0.601347-153
     0.000     0.222   0.604274-153
     0.000     0.238   0.231778E-51
     0.000     0.254   0.179616E-51
     0.000     0.270   0.139928-258
     0.000     0.286   0.290700E-32
     0.000     0.302   0.696312E-76
     0.000     0.317   0.125766E-75
     0.000     0.333   0.219929E+26
     0.000     0.349   0.601347-153
     0.000     0.365   0.604274-153
     0.000     0.381   0.113000E-41
     0.000     0.397   0.102964E-70
     0.000     0.413   0.188708-258
     0.000     0.429   0.290700E-32
     0.000     0.444   0.696312E-76
     0.000     0.460   0.125766E-75
     0.000     0.476   0.304744E+26
     0.000     0.492   0.601347-153
     0.000     0.508   0.604274-153
     0.000     0.524   0.350593E-32
     0.000     0.540   0.934572E-66
     0.000     0.556   0.164350-258
     0.000     0.571   0.290700E-32
     0.000     0.587   0.696312E-76
     0.000     0.603   0.125766E-75
     0.000     0.619   0.304508E+26
     0.000     0.635   0.601347-153
     0.000     0.651   0.604274-153
     0.000     0.667   0.191756E-75
     0.000     0.683   0.117687E-46
     0.000     0.698   0.196869-258
     0.000     0.714   0.290700E-32
     0.000     0.730   0.696312E-76
     0.000     0.746   0.125766E-75
     0.000     0.762   0.268335E+26
     0.000     0.778   0.601347-153
     0.000     0.794   0.604274-153
     0.000     0.810   0.934862E-66
     0.000     0.825   0.951338E-42
     0.000     0.841   0.156220-258
     0.000     0.857   0.290700E-32
     0.000     0.873   0.696312E-76
     0.000     0.889   0.125766E-75
     0.000     0.905   0.256151E+26
     0.000     0.921   0.601347-153
     0.000     0.937   0.604274-153
     0.000     0.952   0.290066E-56
     0.000     0.968   0.951338E-42
     0.000     0.984   0.156220-258
     0.000     1.000   0.290700E-32
     0.016     0.000   0.696312E-76
     0.016     0.016   0.110820E+18
     0.016     0.032   0.295387E+15
     0.016     0.048   0.491962E+12
     0.016     0.063   0.680210E+09
     0.016     0.079    852117.    
     0.016     0.095   0.184172E+08
     0.016     0.111   0.140229E+11
     0.016     0.127   0.898876E+13
     0.016     0.143   0.469318E+16
     0.016     0.159   0.192003E+19
     0.016     0.175   0.600346E+21
     0.016     0.190   0.149947E+24
     0.016     0.206   0.600346E+21
     0.016     0.222   0.192003E+19
     0.016     0.238   0.469318E+16
     0.016     0.254   0.900603E+13
     0.016     0.270   0.110673E+14
     0.016     0.286   0.573820E+16
     0.016     0.302   0.230349E+19
     0.016     0.317   0.676483E+21
     0.016     0.333   0.142447E+24
     0.016     0.349   0.676483E+21
     0.016     0.365   0.230349E+19
     0.016     0.381   0.573820E+16
     0.016     0.397   0.110665E+14
     0.016     0.413   0.849080E+13
     0.016     0.429   0.443097E+16
     0.016     0.444   0.182182E+19
     0.016     0.460   0.578619E+21
     0.016     0.476   0.149957E+24
     0.016     0.492   0.578619E+21
     0.016     0.508   0.182182E+19
     0.016     0.524   0.443097E+16
     0.016     0.540   0.848754E+13
     0.016     0.556   0.899996E+13
     0.016     0.571   0.469510E+16
     0.016     0.587   0.192461E+19
     0.016     0.603   0.605480E+21
     0.016     0.619   0.153454E+24
     0.016     0.635   0.605480E+21
     0.016     0.651   0.192461E+19
     0.016     0.667   0.469510E+16
     0.016     0.683   0.900727E+13
     0.016     0.698   0.131459E+14
     0.016     0.714   0.681914E+16
     0.016     0.730   0.273972E+19
     0.016     0.746   0.806873E+21
     0.016     0.762   0.171357E+24
     0.016     0.778   0.806873E+21
     0.016     0.794   0.273972E+19
     0.016     0.810   0.681914E+16
     0.016     0.825   0.131320E+14
     0.016     0.841   0.995267E+11
     0.016     0.857   0.103505E+15
     0.016     0.873   0.123354E+18
     0.016     0.889   0.118065E+21
     0.016     0.905   0.774216E+23
     0.016     0.921   0.118065E+21
     0.016     0.937   0.123354E+18
     0.016     0.952   0.176035E+15
     0.016     0.968   0.188113E+17
     0.016     0.984   0.251058E+19
     0.016     1.000   0.696312E-76
     0.032     0.000   0.125766E-75
     0.032     0.016   0.103104E+21
     0.032     0.032   0.221639E+18
     0.032     0.048   0.295388E+15
     0.032     0.063   0.327976E+12
     0.032     0.079   0.340107E+09
     0.032     0.095    478664.    
     0.032     0.111   0.110497E+09
     0.032     0.127   0.701141E+11
     0.032     0.143   0.359548E+14
     0.032     0.159   0.140795E+17
     0.032     0.175   0.384005E+19
     0.032     0.190   0.600355E+21
     0.032     0.206   0.384005E+19
     0.032     0.222   0.140795E+17
     0.032     0.238   0.359548E+14
     0.032     0.254   0.702503E+11
     0.032     0.270   0.864852E+11
     0.032     0.286   0.442127E+14
     0.032     0.302   0.172145E+17
     0.032     0.317   0.460698E+19
     0.032     0.333   0.676495E+21
     0.032     0.349   0.460698E+19
     0.032     0.365   0.172145E+17
     0.032     0.381   0.442127E+14
     0.032     0.397   0.864788E+11
     0.032     0.413   0.661984E+11
     0.032     0.429   0.338939E+14
     0.032     0.444   0.132928E+17
     0.032     0.460   0.364364E+19
     0.032     0.476   0.578628E+21
     0.032     0.492   0.364364E+19
     0.032     0.508   0.132928E+17
     0.032     0.524   0.338939E+14
     0.032     0.540   0.661727E+11
     0.032     0.556   0.701869E+11
     0.032     0.571   0.359467E+14
     0.032     0.587   0.140852E+17
     0.032     0.603   0.384922E+19
     0.032     0.619   0.605489E+21
     0.032     0.635   0.384922E+19
     0.032     0.651   0.140852E+17
     0.032     0.667   0.359467E+14
     0.032     0.683   0.702446E+11
     0.032     0.698   0.102718E+12
     0.032     0.714   0.525273E+14
     0.032     0.730   0.204573E+17
     0.032     0.746   0.547945E+19
     0.032     0.762   0.806886E+21
     0.032     0.778   0.547945E+19
     0.032     0.794   0.204573E+17
     0.032     0.810   0.525273E+14
     0.032     0.825   0.102608E+12
     0.032     0.841   0.460632E+09
     0.032     0.857   0.316019E+12
     0.032     0.873   0.310516E+15
     0.032     0.889   0.246708E+18
     0.032     0.905   0.118065E+21
     0.032     0.921   0.246708E+18
     0.032     0.937   0.358869E+15
     0.032     0.952   0.188117E+17
     0.032     0.968   0.502119E+19
     0.032     0.984   0.730778E+21
     0.032     1.000   0.125766E-75
     0.048     0.000   0.220260E+26
     0.048     0.016   0.668358E+23
     0.048     0.032   0.103104E+21
     0.048     0.048   0.110820E+18
     0.048     0.063   0.984632E+14
     0.048     0.079   0.819948E+11
     0.048     0.095   0.680228E+08
     0.048     0.111    493917.    
     0.048     0.127   0.276242E+09
     0.048     0.143   0.140228E+12
     0.048     0.159   0.539322E+14
     0.048     0.175   0.140795E+17
     0.048     0.190   0.192007E+19
     0.048     0.206   0.140795E+17
     0.048     0.222   0.539322E+14
     0.048     0.238   0.140228E+12
     0.048     0.254   0.276783E+09
     0.048     0.270   0.340962E+09
     0.048     0.286   0.172749E+12
     0.048     0.302   0.663191E+14
     0.048     0.317   0.172146E+17
     0.048     0.333   0.230355E+19
     0.048     0.349   0.172146E+17
     0.048     0.365   0.663191E+14
     0.048     0.381   0.172749E+12
     0.048     0.397   0.340937E+09
     0.048     0.413   0.260772E+09
     0.048     0.429   0.132124E+12
     0.048     0.444   0.508408E+14
     0.048     0.460   0.132929E+17
     0.048     0.476   0.182186E+19
     0.048     0.492   0.132929E+17
     0.048     0.508   0.508408E+14
     0.048     0.524   0.132124E+12
     0.048     0.540   0.260669E+09
     0.048     0.556   0.276506E+09
     0.048     0.571   0.140165E+12
     0.048     0.587   0.539201E+14
     0.048     0.603   0.140853E+17
     0.048     0.619   0.192466E+19
     0.048     0.635   0.140853E+17
     0.048     0.651   0.539201E+14
     0.048     0.667   0.140165E+12
     0.048     0.683   0.276735E+09
     0.048     0.698   0.404943E+09
     0.048     0.714   0.205216E+12
     0.048     0.730   0.787909E+14
     0.048     0.746   0.204574E+17
     0.048     0.762   0.273979E+19
     0.048     0.778   0.204574E+17
     0.048     0.794   0.787909E+14
     0.048     0.810   0.205216E+12
     0.048     0.825   0.404505E+09
     0.048     0.841   0.132447E+07
     0.048     0.857   0.597660E+09
     0.048     0.873   0.474029E+12
     0.048     0.889   0.310516E+15
     0.048     0.905   0.123354E+18
     0.048     0.921   0.322605E+15
     0.048     0.937   0.627111E+16
     0.048     0.952   0.251066E+19
     0.048     0.968   0.730791E+21
     0.048     0.984   0.149697E+24
     0.048     1.000   0.220260E+26
     0.063     0.000   0.601347-153
     0.063     0.016   0.103104E+21
     0.063     0.032   0.221639E+18
     0.063     0.048   0.295388E+15
     0.063     0.063   0.327976E+12
     0.063     0.079   0.340107E+09
     0.063     0.095    332498.    
     0.063     0.111    1464.13    
     0.063     0.127    730833.    
     0.063     0.143   0.368322E+09
     0.063     0.159   0.140228E+12
     0.063     0.175   0.359550E+14
     0.063     0.190   0.469330E+16
     0.063     0.206   0.359550E+14
     0.063     0.222   0.140228E+12
     0.063     0.238   0.368322E+09
     0.063     0.254    732272.    
     0.063     0.270    902298.    
     0.063     0.286   0.454032E+09
     0.063     0.302   0.172749E+12
     0.063     0.317   0.442131E+14
     0.063     0.333   0.573836E+16
     0.063     0.349   0.442131E+14
     0.063     0.365   0.172749E+12
     0.063     0.381   0.454032E+09
     0.063     0.397    902231.    
     0.063     0.413    689861.    
     0.063     0.429   0.346975E+09
     0.063     0.444   0.132124E+12
     0.063     0.460   0.338941E+14
     0.063     0.476   0.443109E+16
     0.063     0.492   0.338941E+14
     0.063     0.508   0.132124E+12
     0.063     0.524   0.346975E+09
     0.063     0.540    689589.    
     0.063     0.556    731502.    
     0.063     0.571   0.368123E+09
     0.063     0.587   0.140166E+12
     0.063     0.603   0.359470E+14
     0.063     0.619   0.469522E+16
     0.063     0.635   0.359470E+14
     0.063     0.651   0.140166E+12
     0.063     0.667   0.368123E+09
     0.063     0.683    732112.    
     0.063     0.698   0.107159E+07
     0.063     0.714   0.539339E+09
     0.063     0.730   0.205216E+12
     0.063     0.746   0.525276E+14
     0.063     0.762   0.681932E+16
     0.063     0.778   0.525276E+14
     0.063     0.794   0.205216E+12
     0.063     0.810   0.539339E+09
     0.063     0.825   0.107042E+07
     0.063     0.841    2883.22    
     0.063     0.857    909631.    
     0.063     0.873   0.597659E+09
     0.063     0.889   0.316020E+12
     0.063     0.905   0.103506E+15
     0.063     0.921   0.410510E+12
     0.063     0.937   0.483539E+14
     0.063     0.952   0.188114E+17
     0.063     0.968   0.502119E+19
     0.063     0.984   0.730778E+21
     0.063     1.000   0.601347-153
     0.079     0.000   0.603687-153
     0.079     0.016   0.110820E+18
     0.079     0.032   0.295388E+15
     0.079     0.048   0.491963E+12
     0.079     0.063   0.680211E+09
     0.079     0.079    831238.    
     0.079     0.095    892.120    
     0.079     0.111    3.17233    
     0.079     0.127    1458.45    
     0.079     0.143    730834.    
     0.079     0.159   0.276243E+09
     0.079     0.175   0.701147E+11
     0.079     0.190   0.898902E+13
     0.079     0.206   0.701147E+11
     0.079     0.222   0.276243E+09
     0.079     0.238    730834.    
     0.079     0.254    1461.33    
     0.079     0.270    1800.86    
     0.079     0.286    901133.    
     0.079     0.302   0.340525E+09
     0.079     0.317   0.863754E+11
     0.079     0.333   0.110536E+14
     0.079     0.349   0.863754E+11
     0.079     0.365   0.340525E+09
     0.079     0.381    901133.    
     0.079     0.397    1800.73    
     0.079     0.413    1376.65    
     0.079     0.429    688423.    
     0.079     0.444   0.260232E+09
     0.079     0.460   0.660628E+11
     0.079     0.476   0.847377E+13
     0.079     0.492   0.660628E+11
     0.079     0.508   0.260232E+09
     0.079     0.524    688423.    
     0.079     0.540    1376.10    
     0.079     0.556    1459.75    
     0.079     0.571    730403.    
     0.079     0.587   0.276093E+09
     0.079     0.603   0.700834E+11
     0.079     0.619   0.898701E+13
     0.079     0.635   0.700834E+11
     0.079     0.651   0.276093E+09
     0.079     0.667    730403.    
     0.079     0.683    1460.97    
     0.079     0.698    2138.70    
     0.079     0.714   0.107042E+07
     0.079     0.730   0.404506E+09
     0.079     0.746   0.102609E+12
     0.079     0.762   0.131323E+14
     0.079     0.778   0.102609E+12
     0.079     0.794   0.404506E+09
     0.079     0.810   0.107042E+07
     0.079     0.825    2136.37    
     0.079     0.841    5.04092    
     0.079     0.857    1174.13    
     0.079     0.873    682223.    
     0.079     0.889   0.298831E+09
     0.079     0.905   0.790061E+11
     0.079     0.921   0.671392E+09
     0.079     0.937   0.188980E+12
     0.079     0.952   0.725295E+14
     0.079     0.968   0.188113E+17
     0.079     0.984   0.251060E+19
     0.079     1.000   0.603687-153
     0.095     0.000   0.120054E-70
     0.095     0.016   0.984626E+14
     0.095     0.032   0.327975E+12
     0.095     0.048   0.680211E+09
     0.095     0.063   0.110832E+07
     0.095     0.079    1486.86    
     0.095     0.095    1.66613    
     0.095     0.111   0.534812E-02
     0.095     0.127    2.33927    
     0.095     0.143    1166.76    
     0.095     0.159    438502.    
     0.095     0.175   0.110498E+09
     0.095     0.190   0.140234E+11
     0.095     0.206   0.110498E+09
     0.095     0.222    438502.    
     0.095     0.238    1166.76    
     0.095     0.254    2.34391    
     0.095     0.270    2.88871    
     0.095     0.286    1438.82    
     0.095     0.302    540682.    
     0.095     0.317   0.136211E+09
     0.095     0.333   0.172756E+11
     0.095     0.349   0.136211E+09
     0.095     0.365    540682.    
     0.095     0.381    1438.82    
     0.095     0.397    2.88849    
     0.095     0.413    2.20803    
     0.095     0.429    1099.01    
     0.095     0.444    413056.    
     0.095     0.460   0.104094E+09
     0.095     0.476   0.132130E+11
     0.095     0.492   0.104094E+09
     0.095     0.508    413056.    
     0.095     0.524    1099.01    
     0.095     0.540    2.20715    
     0.095     0.556    2.34132    
     0.095     0.571    1166.04    
     0.095     0.587    438244.    
     0.095     0.603   0.110438E+09
     0.095     0.619   0.140171E+11
     0.095     0.635   0.110438E+09
     0.095     0.651    438244.    
     0.095     0.667    1166.04    
     0.095     0.683    2.34329    
     0.095     0.698    3.43059    
     0.095     0.714    1709.10    
     0.095     0.730    642255.    
     0.095     0.746   0.161804E+09
     0.095     0.762   0.205224E+11
     0.095     0.778   0.161804E+09
     0.095     0.794    642255.    
     0.095     0.810    1709.10    
     0.095     0.825    3.42683    
     0.095     0.841   0.734095E-02
     0.095     0.857    1.29129    
     0.095     0.873    704.481    
     0.095     0.889    272892.    
     0.095     0.905   0.597684E+08
     0.095     0.921   0.125886E+07
     0.095     0.937   0.496748E+09
     0.095     0.952   0.188979E+12
     0.095     0.968   0.483530E+14
     0.095     0.984   0.627046E+16
     0.095     1.000   0.564434E-61
     0.111     0.000   0.600599E-66
     0.111     0.016   0.819940E+11
     0.111     0.032   0.340106E+09
     0.111     0.048    831237.    
     0.111     0.063    1486.86    
     0.111     0.079    2.08265    
     0.111     0.095   0.237276E-02
     0.111     0.111   0.733066E-05
     0.111     0.127   0.313857E-02
     0.111     0.143    1.55952    
     0.111     0.159    583.383    
     0.111     0.175    146169.    
     0.111     0.190   0.184169E+08
     0.111     0.206    146169.    
     0.111     0.222    583.383    
     0.111     0.238    1.55952    
     0.111     0.254   0.314482E-02
     0.111     0.270   0.387595E-02
     0.111     0.286    1.92330    
     0.111     0.302    719.414    
     0.111     0.317    180229.    
     0.111     0.333   0.227026E+08
     0.111     0.349    180229.    
     0.111     0.365    719.414    
     0.111     0.381    1.92330    
     0.111     0.397   0.387566E-02
     0.111     0.413   0.296246E-02
     0.111     0.429    1.46892    
     0.111     0.444    549.508    
     0.111     0.460    137686.    
     0.111     0.476   0.173495E+08
     0.111     0.492    137686.    
     0.111     0.508    549.508    
     0.111     0.524    1.46892    
     0.111     0.540   0.296127E-02
     0.111     0.556   0.314130E-02
     0.111     0.571    1.55852    
     0.111     0.587    583.022    
     0.111     0.603    146083.    
     0.111     0.619   0.184070E+08
     0.111     0.635    146083.    
     0.111     0.651    583.022    
     0.111     0.667    1.55852    
     0.111     0.683   0.314395E-02
     0.111     0.698   0.460299E-02
     0.111     0.714    2.28456    
     0.111     0.730    854.551    
     0.111     0.746    214087.    
     0.111     0.762   0.269681E+08
     0.111     0.778    214087.    
     0.111     0.794    854.551    
     0.111     0.810    2.28456    
     0.111     0.825   0.459792E-02
     0.111     0.841   0.915739E-05
     0.111     0.857   0.121565E-02
     0.111     0.873   0.645645    
     0.111     0.889    234.831    
     0.111     0.905    45485.5    
     0.111     0.921    2202.74    
     0.111     0.937    985969.    
     0.111     0.952   0.372560E+09
     0.111     0.968   0.944898E+11
     0.111     0.984   0.120883E+14
     0.111     1.000   0.622895E-37
     0.127     0.000   0.196774-258
     0.127     0.016   0.680214E+08
     0.127     0.032    332495.    
     0.127     0.048    892.115    
     0.127     0.063    1.66612    
     0.127     0.079   0.237275E-02
     0.127     0.095   0.271472E-05
     0.127     0.111   0.844496E-08
     0.127     0.127   0.362029E-05
     0.127     0.143   0.179347E-02
     0.127     0.159   0.668367    
     0.127     0.175    166.683    
     0.127     0.190    20881.9    
     0.127     0.206    166.683    
     0.127     0.222   0.668367    
     0.127     0.238   0.179347E-02
     0.127     0.254   0.362751E-05
     0.127     0.270   0.447100E-05
     0.127     0.286   0.221194E-02
     0.127     0.302   0.824275    
     0.127     0.317    205.549    
     0.127     0.333    25747.8    
     0.127     0.349    205.549    
     0.127     0.365   0.824275    
     0.127     0.381   0.221194E-02
     0.127     0.397   0.447066E-05
     0.127     0.413   0.341712E-05
     0.127     0.429   0.168927E-02
     0.127     0.444   0.629542    
     0.127     0.460    157.004    
     0.127     0.476    19670.1    
     0.127     0.492    157.004    
     0.127     0.508   0.629542    
     0.127     0.524   0.168927E-02
     0.127     0.540   0.341575E-05
     0.127     0.556   0.362341E-05
     0.127     0.571   0.179230E-02
     0.127     0.587   0.667940    
     0.127     0.603    166.579    
     0.127     0.619    20869.6    
     0.127     0.635    166.579    
     0.127     0.651   0.667940    
     0.127     0.667   0.179230E-02
     0.127     0.683   0.362647E-05
     0.127     0.698   0.530963E-05
     0.127     0.714   0.262739E-02
     0.127     0.730   0.979099    
     0.127     0.746    244.160    
     0.127     0.762    30584.8    
     0.127     0.778    244.160    
     0.127     0.794   0.979099    
     0.127     0.810   0.262739E-02
     0.127     0.825   0.530377E-05
     0.127     0.841   0.999641E-08
     0.127     0.857   0.989800E-06
     0.127     0.873   0.520994E-03
     0.127     0.889   0.184476    
     0.127     0.905    33.5523    
     0.127     0.921    3.34120    
     0.127     0.937    1574.33    
     0.127     0.952    591582.    
     0.127     0.968   0.149025E+09
     0.127     0.984   0.188981E+11
     0.127     1.000    0.00000    
     0.143     0.000    0.00000    
     0.143     0.016    55416.1    
     0.143     0.032    297.372    
     0.143     0.048   0.833062    
     0.143     0.063   0.158183E-02
     0.143     0.079   0.226226E-05
     0.143     0.095   0.258517E-08
     0.143     0.111   0.839088E-11
     0.143     0.127   0.366238E-08
     0.143     0.143   0.181015E-05
     0.143     0.159   0.672556E-03
     0.143     0.175   0.167093    
     0.143     0.190    20.8360    
     0.143     0.206   0.167093    
     0.143     0.222   0.672556E-03
     0.143     0.238   0.181015E-05
     0.143     0.254   0.366970E-08
     0.143     0.270   0.452310E-08
     0.143     0.286   0.223258E-05
     0.143     0.302   0.829480E-03
     0.143     0.317   0.206071    
     0.143     0.333    25.6944    
     0.143     0.349   0.206071    
     0.143     0.365   0.829480E-03
     0.143     0.381   0.223258E-05
     0.143     0.397   0.452276E-08
     0.143     0.413   0.345684E-08
     0.143     0.429   0.170495E-05
     0.143     0.444   0.633477E-03
     0.143     0.460   0.157387    
     0.143     0.476    19.6261    
     0.143     0.492   0.157387    
     0.143     0.508   0.633477E-03
     0.143     0.524   0.170495E-05
     0.143     0.540   0.345545E-08
     0.143     0.556   0.366552E-08
     0.143     0.571   0.180895E-05
     0.143     0.587   0.672117E-03
     0.143     0.603   0.166987    
     0.143     0.619    20.8231    
     0.143     0.635   0.166987    
     0.143     0.651   0.672117E-03
     0.143     0.667   0.180895E-05
     0.143     0.683   0.366863E-08
     0.143     0.698   0.537148E-08
     0.143     0.714   0.265189E-05
     0.143     0.730   0.985276E-03
     0.143     0.746   0.244777    
     0.143     0.762    30.5210    
     0.143     0.778   0.244777    
     0.143     0.794   0.985276E-03
     0.143     0.810   0.265189E-05
     0.143     0.825   0.536554E-08
     0.143     0.841   0.970323E-11
     0.143     0.857   0.705800E-09
     0.143     0.873   0.371179E-06
     0.143     0.889   0.130257E-03
     0.143     0.905   0.230659E-01
     0.143     0.921   0.436587E-02
     0.143     0.937    2.10449    
     0.143     0.952    787.168    
     0.143     0.968    197195.    
     0.143     0.984   0.248376E+08
     0.143     1.000    0.00000    
     0.159     0.000    0.00000    
     0.159     0.016    42.4820    
     0.159     0.032   0.238018    
     0.159     0.048   0.677931E-03
     0.159     0.063   0.129273E-05
     0.159     0.079   0.184657E-08
     0.159     0.095   0.210268E-11
     0.159     0.111   0.734059E-14
     0.159     0.127   0.329883E-11
     0.159     0.143   0.162773E-08
     0.159     0.159   0.603386E-06
     0.159     0.175   0.149458E-03
     0.159     0.190   0.185665E-01
     0.159     0.206   0.149458E-03
     0.159     0.222   0.603386E-06
     0.159     0.238   0.162773E-08
     0.159     0.254   0.330543E-11
     0.159     0.270   0.407418E-11
     0.159     0.286   0.200763E-08
     0.159     0.302   0.744196E-06
     0.159     0.317   0.184331E-03
     0.159     0.333   0.228975E-01
     0.159     0.349   0.184331E-03
     0.159     0.365   0.744196E-06
     0.159     0.381   0.200763E-08
     0.159     0.397   0.407387E-11
     0.159     0.413   0.311368E-11
     0.159     0.429   0.153312E-08
     0.159     0.444   0.568320E-06
     0.159     0.460   0.140774E-03
     0.159     0.476   0.174880E-01
     0.159     0.492   0.140774E-03
     0.159     0.508   0.568320E-06
     0.159     0.524   0.153312E-08
     0.159     0.540   0.311243E-11
     0.159     0.556   0.330165E-11
     0.159     0.571   0.162664E-08
     0.159     0.587   0.602986E-06
     0.159     0.603   0.149361E-03
     0.159     0.619   0.185547E-01
     0.159     0.635   0.149361E-03
     0.159     0.651   0.602986E-06
     0.159     0.667   0.162664E-08
     0.159     0.683   0.330445E-11
     0.159     0.698   0.483834E-11
     0.159     0.714   0.238469E-08
     0.159     0.730   0.883968E-06
     0.159     0.746   0.218952E-03
     0.159     0.762   0.271983E-01
     0.159     0.778   0.218952E-03
     0.159     0.794   0.883968E-06
     0.159     0.810   0.238469E-08
     0.159     0.825   0.483299E-11
     0.159     0.841   0.847658E-14
     0.159     0.857   0.446180E-12
     0.159     0.873   0.235272E-09
     0.159     0.889   0.824930E-07
     0.159     0.905   0.144801E-04
     0.159     0.921   0.496842E-05
     0.159     0.937   0.242036E-02
     0.159     0.952   0.901925    
     0.159     0.968    224.906    
     0.159     0.984    28170.9    
     0.159     1.000    0.00000    
     0.175     0.000    0.00000    
     0.175     0.016   0.297678E-01
     0.175     0.032   0.169718E-03
     0.175     0.048   0.486558E-06
     0.175     0.063   0.932316E-09
     0.175     0.079   0.134836E-11
     0.175     0.095   0.159303E-14
     0.175     0.111   0.600838E-17
     0.175     0.127   0.267722E-14
     0.175     0.143   0.131954E-11
     0.175     0.159   0.488321E-09
     0.175     0.175   0.120678E-06
     0.175     0.190   0.149463E-04
     0.175     0.206   0.120678E-06
     0.175     0.222   0.488321E-09
     0.175     0.238   0.131954E-11
     0.175     0.254   0.268258E-14
     0.175     0.270   0.330651E-14
     0.175     0.286   0.162754E-11
     0.175     0.302   0.602293E-09
     0.175     0.317   0.148841E-06
     0.175     0.333   0.184337E-04
     0.175     0.349   0.148841E-06
     0.175     0.365   0.602293E-09
     0.175     0.381   0.162754E-11
     0.175     0.397   0.330626E-14
     0.175     0.413   0.252695E-14
     0.175     0.429   0.124283E-11
     0.175     0.444   0.459939E-09
     0.175     0.460   0.113665E-06
     0.175     0.476   0.140779E-04
     0.175     0.492   0.113665E-06
     0.175     0.508   0.459939E-09
     0.175     0.524   0.124283E-11
     0.175     0.540   0.252594E-14
     0.175     0.556   0.267950E-14
     0.175     0.571   0.131864E-11
     0.175     0.587   0.487994E-09
     0.175     0.603   0.120598E-06
     0.175     0.619   0.149366E-04
     0.175     0.635   0.120598E-06
     0.175     0.651   0.487994E-09
     0.175     0.667   0.131864E-11
     0.175     0.683   0.268177E-14
     0.175     0.698   0.392668E-14
     0.175     0.714   0.193320E-11
     0.175     0.730   0.715411E-09
     0.175     0.746   0.176795E-06
     0.175     0.762   0.218960E-04
     0.175     0.778   0.176795E-06
     0.175     0.794   0.715411E-09
     0.175     0.810   0.193320E-11
     0.175     0.825   0.392233E-14
     0.175     0.841   0.672673E-17
     0.175     0.857   0.252788E-15
     0.175     0.873   0.133860E-12
     0.175     0.889   0.470630E-10
     0.175     0.905   0.825638E-08
     0.175     0.921   0.498996E-08
     0.175     0.937   0.244297E-05
     0.175     0.952   0.907637E-03
     0.175     0.968   0.225482    
     0.175     0.984    28.1135    
     0.175     1.000    0.00000    
     0.190     0.000    0.00000    
     0.190     0.016   0.354884E-04
     0.190     0.032   0.361599E-06
     0.190     0.048   0.223860E-08
     0.190     0.063   0.103546E-10
     0.190     0.079   0.378341E-13
     0.190     0.095   0.112840E-15
     0.190     0.111   0.285518E-18
     0.190     0.127   0.197706E-17
     0.190     0.143   0.973538E-15
     0.190     0.159   0.359875E-12
     0.190     0.175   0.887866E-10
     0.190     0.190   0.109711E-07
     0.190     0.206   0.887866E-10
     0.190     0.222   0.359875E-12
     0.190     0.238   0.973538E-15
     0.190     0.254   0.198041E-17
     0.190     0.270   0.244104E-17
     0.190     0.286   0.120079E-14
     0.190     0.302   0.443876E-12
     0.190     0.317   0.109509E-09
     0.190     0.333   0.135314E-07
     0.190     0.349   0.109509E-09
     0.190     0.365   0.443876E-12
     0.190     0.381   0.120079E-14
     0.190     0.397   0.244086E-17
     0.190     0.413   0.186551E-17
     0.190     0.429   0.916945E-15
     0.190     0.444   0.338957E-12
     0.190     0.460   0.836261E-10
     0.190     0.476   0.103335E-07
     0.190     0.492   0.836261E-10
     0.190     0.508   0.338957E-12
     0.190     0.524   0.916945E-15
     0.190     0.540   0.186476E-17
     0.190     0.556   0.197813E-17
     0.190     0.571   0.972877E-15
     0.190     0.587   0.359632E-12
     0.190     0.603   0.887271E-10
     0.190     0.619   0.109638E-07
     0.190     0.635   0.887271E-10
     0.190     0.651   0.359632E-12
     0.190     0.667   0.972877E-15
     0.190     0.683   0.197981E-17
     0.190     0.698   0.289888E-17
     0.190     0.714   0.142631E-14
     0.190     0.730   0.527240E-12
     0.190     0.746   0.130076E-09
     0.190     0.762   0.160728E-07
     0.190     0.778   0.130076E-09
     0.190     0.794   0.527240E-12
     0.190     0.810   0.142631E-14
     0.190     0.825   0.289567E-17
     0.190     0.841   0.488551E-20
     0.190     0.857   0.129566E-18
     0.190     0.873   0.689478E-16
     0.190     0.889   0.243458E-13
     0.190     0.905   0.428477E-11
     0.190     0.921   0.447668E-11
     0.190     0.937   0.219685E-08
     0.190     0.952   0.814326E-06
     0.190     0.968   0.201698E-03
     0.190     0.984   0.250539E-01