Title="Temperature Data"
Variables="X","Y","T"
 
Zone I=   128, J=   128, F=POINT
     0.000     0.000    0.00000    
     0.000     0.008    0.00000    
     0.000     0.016    0.00000    
     0.000     0.024    0.00000    
     0.000     0.031    0.00000    
     0.000     0.039    0.00000    
     0.000     0.047    0.00000    
     0.000     0.055    0.00000    
     0.000     0.063    0.00000    
     0.000     0.071    0.00000    
     0.000     0.079    0.00000    
     0.000     0.087    0.00000    
     0.000     0.094    0.00000    
     0.000     0.102    0.00000    
     0.000     0.110    0.00000    
     0.000     0.118    0.00000    
     0.000     0.126    0.00000    
     0.000     0.134    0.00000    
     0.000     0.142    0.00000    
     0.000     0.150    0.00000    
     0.000     0.157    0.00000    
     0.000     0.165    0.00000    
     0.000     0.173    0.00000    
     0.000     0.181    0.00000    
     0.000     0.189    0.00000    
     0.000     0.197    0.00000    
     0.000     0.205    0.00000    
     0.000     0.213    0.00000    
     0.000     0.220    0.00000    
     0.000     0.228    0.00000    
     0.000     0.236    0.00000    
     0.000     0.244    0.00000    
     0.000     0.252    0.00000    
     0.000     0.260    0.00000    
     0.000     0.268    0.00000    
     0.000     0.276    0.00000    
     0.000     0.283    0.00000    
     0.000     0.291    0.00000    
     0.000     0.299    0.00000    
     0.000     0.307    0.00000    
     0.000     0.315    0.00000    
     0.000     0.323    0.00000    
     0.000     0.331    0.00000    
     0.000     0.339    0.00000    
     0.000     0.346    0.00000    
     0.000     0.354    0.00000    
     0.000     0.362    0.00000    
     0.000     0.370    0.00000    
     0.000     0.378    0.00000    
     0.000     0.386    0.00000    
     0.000     0.394    0.00000    
     0.000     0.402    0.00000    
     0.000     0.409    0.00000    
     0.000     0.417    0.00000    
     0.000     0.425    0.00000    
     0.000     0.433    0.00000    
     0.000     0.441    0.00000    
     0.000     0.449    0.00000    
     0.000     0.457    0.00000    
     0.000     0.465    0.00000    
     0.000     0.472    0.00000    
     0.000     0.480    0.00000    
     0.000     0.488    0.00000    
     0.000     0.496    0.00000    
     0.000     0.504    0.00000    
     0.000     0.512    0.00000    
     0.000     0.520    0.00000    
     0.000     0.528    0.00000    
     0.000     0.535    0.00000    
     0.000     0.543    0.00000    
     0.000     0.551    0.00000    
     0.000     0.559    0.00000    
     0.000     0.567    0.00000    
     0.000     0.575    0.00000    
     0.000     0.583    0.00000    
     0.000     0.591    0.00000    
     0.000     0.598    0.00000    
     0.000     0.606    0.00000    
     0.000     0.614    0.00000    
     0.000     0.622    0.00000    
     0.000     0.630    0.00000    
     0.000     0.638    0.00000    
     0.000     0.646    0.00000    
     0.000     0.654    0.00000    
     0.000     0.661    0.00000    
     0.000     0.669    0.00000    
     0.000     0.677    0.00000    
     0.000     0.685    0.00000    
     0.000     0.693    0.00000    
     0.000     0.701    0.00000    
     0.000     0.709    0.00000    
     0.000     0.717    0.00000    
     0.000     0.724    0.00000    
     0.000     0.732    0.00000    
     0.000     0.740    0.00000    
     0.000     0.748    0.00000    
     0.000     0.756    0.00000    
     0.000     0.764    0.00000    
     0.000     0.772    0.00000    
     0.000     0.780    0.00000    
     0.000     0.787    0.00000    
     0.000     0.795    0.00000    
     0.000     0.803    0.00000    
     0.000     0.811    0.00000    
     0.000     0.819    0.00000    
     0.000     0.827    0.00000    
     0.000     0.835    0.00000    
     0.000     0.843    0.00000    
     0.000     0.850    0.00000    
     0.000     0.858    0.00000    
     0.000     0.866    0.00000    
     0.000     0.874    0.00000    
     0.000     0.882    0.00000    
     0.000     0.890    0.00000    
     0.000     0.898    0.00000    
     0.000     0.906    0.00000    
     0.000     0.913    0.00000    
     0.000     0.921    0.00000    
     0.000     0.929    0.00000    
     0.000     0.937    0.00000    
     0.000     0.945    0.00000    
     0.000     0.953    0.00000    
     0.000     0.961    0.00000    
     0.000     0.969    0.00000    
     0.000     0.976    0.00000    
     0.000     0.984    0.00000    
     0.000     0.992    0.00000    
     0.000     1.000    0.00000    
     0.008     0.000   0.247344E-01
     0.008     0.008   0.241238E-01
     0.008     0.016   0.235280E-01
     0.008     0.024   0.229466E-01
     0.008     0.031   0.223793E-01
     0.008     0.039   0.218256E-01
     0.008     0.047   0.212853E-01
     0.008     0.055   0.207581E-01
     0.008     0.063   0.202437E-01
     0.008     0.071   0.197416E-01
     0.008     0.079   0.192517E-01
     0.008     0.087   0.187736E-01
     0.008     0.094   0.183070E-01
     0.008     0.102   0.178517E-01
     0.008     0.110   0.174074E-01
     0.008     0.118   0.169738E-01
     0.008     0.126   0.165507E-01
     0.008     0.134   0.161377E-01
     0.008     0.142   0.157348E-01
     0.008     0.150   0.153415E-01
     0.008     0.157   0.149577E-01
     0.008     0.165   0.145832E-01
     0.008     0.173   0.142176E-01
     0.008     0.181   0.138609E-01
     0.008     0.189   0.135128E-01
     0.008     0.197   0.131730E-01
     0.008     0.205   0.128415E-01
     0.008     0.213   0.125179E-01
     0.008     0.220   0.122021E-01
     0.008     0.228   0.118938E-01
     0.008     0.236   0.115930E-01
     0.008     0.244   0.112994E-01
     0.008     0.252   0.110129E-01
     0.008     0.260   0.107332E-01
     0.008     0.268   0.104603E-01
     0.008     0.276   0.101938E-01
     0.008     0.283   0.993385E-02
     0.008     0.291   0.968005E-02
     0.008     0.299   0.943236E-02
     0.008     0.307   0.919057E-02
     0.008     0.315   0.895460E-02
     0.008     0.323   0.872424E-02
     0.008     0.331   0.849942E-02
     0.008     0.339   0.827994E-02
     0.008     0.346   0.806573E-02
     0.008     0.354   0.785659E-02
     0.008     0.362   0.765247E-02
     0.008     0.370   0.745318E-02
     0.008     0.378   0.725867E-02
     0.008     0.386   0.706874E-02
     0.008     0.394   0.688336E-02
     0.008     0.402   0.670234E-02
     0.008     0.409   0.652564E-02
     0.008     0.417   0.635309E-02
     0.008     0.425   0.618466E-02
     0.008     0.433   0.602016E-02
     0.008     0.441   0.585957E-02
     0.008     0.449   0.570273E-02
     0.008     0.457   0.554961E-02
     0.008     0.465   0.540003E-02
     0.008     0.472   0.525400E-02
     0.008     0.480   0.511134E-02
     0.008     0.488   0.497204E-02
     0.008     0.496   0.483594E-02
     0.008     0.504   0.470303E-02
     0.008     0.512   0.457316E-02
     0.008     0.520   0.444632E-02
     0.008     0.528   0.432235E-02
     0.008     0.535   0.420127E-02
     0.008     0.543   0.408291E-02
     0.008     0.551   0.396729E-02
     0.008     0.559   0.385424E-02
     0.008     0.567   0.374379E-02
     0.008     0.575   0.363577E-02
     0.008     0.583   0.353021E-02
     0.008     0.591   0.342696E-02
     0.008     0.598   0.332604E-02
     0.008     0.606   0.322729E-02
     0.008     0.614   0.313075E-02
     0.008     0.622   0.303626E-02
     0.008     0.630   0.294385E-02
     0.008     0.638   0.285338E-02
     0.008     0.646   0.276488E-02
     0.008     0.654   0.267820E-02
     0.008     0.661   0.259337E-02
     0.008     0.669   0.251026E-02
     0.008     0.677   0.242890E-02
     0.008     0.685   0.234914E-02
     0.008     0.693   0.227103E-02
     0.008     0.701   0.219442E-02
     0.008     0.709   0.211935E-02
     0.008     0.717   0.204570E-02
     0.008     0.724   0.197349E-02
     0.008     0.732   0.190260E-02
     0.008     0.740   0.183304E-02
     0.008     0.748   0.176472E-02
     0.008     0.756   0.169765E-02
     0.008     0.764   0.163173E-02
     0.008     0.772   0.156696E-02
     0.008     0.780   0.150325E-02
     0.008     0.787   0.144061E-02
     0.008     0.795   0.137895E-02
     0.008     0.803   0.131827E-02
     0.008     0.811   0.125848E-02
     0.008     0.819   0.119960E-02
     0.008     0.827   0.114154E-02
     0.008     0.835   0.108429E-02
     0.008     0.843   0.102779E-02
     0.008     0.850   0.972023E-03
     0.008     0.858   0.916921E-03
     0.008     0.866   0.862483E-03
     0.008     0.874   0.808633E-03
     0.008     0.882   0.755370E-03
     0.008     0.890   0.702624E-03
     0.008     0.898   0.650388E-03
     0.008     0.906   0.598597E-03
     0.008     0.913   0.547242E-03
     0.008     0.921   0.496263E-03
     0.008     0.929   0.445645E-03
     0.008     0.937   0.395333E-03
     0.008     0.945   0.345309E-03
     0.008     0.953   0.295522E-03
     0.008     0.961   0.245952E-03
     0.008     0.969   0.196550E-03
     0.008     0.976   0.147293E-03
     0.008     0.984   0.981359E-04
     0.008     0.992   0.490511E-04
     0.008     1.000    0.00000    
     0.016     0.000   0.494537E-01
     0.016     0.008   0.482329E-01
     0.016     0.016   0.470416E-01
     0.016     0.024   0.458792E-01
     0.016     0.031   0.447448E-01
     0.016     0.039   0.436379E-01
     0.016     0.047   0.425576E-01
     0.016     0.055   0.415036E-01
     0.016     0.063   0.404749E-01
     0.016     0.071   0.394711E-01
     0.016     0.079   0.384916E-01
     0.016     0.087   0.375357E-01
     0.016     0.094   0.366028E-01
     0.016     0.102   0.356925E-01
     0.016     0.110   0.348041E-01
     0.016     0.118   0.339372E-01
     0.016     0.126   0.330912E-01
     0.016     0.134   0.322656E-01
     0.016     0.142   0.314599E-01
     0.016     0.150   0.306736E-01
     0.016     0.157   0.299062E-01
     0.016     0.165   0.291574E-01
     0.016     0.173   0.284266E-01
     0.016     0.181   0.277134E-01
     0.016     0.189   0.270173E-01
     0.016     0.197   0.263380E-01
     0.016     0.205   0.256751E-01
     0.016     0.213   0.250281E-01
     0.016     0.220   0.243966E-01
     0.016     0.228   0.237804E-01
     0.016     0.236   0.231789E-01
     0.016     0.244   0.225919E-01
     0.016     0.252   0.220190E-01
     0.016     0.260   0.214599E-01
     0.016     0.268   0.209141E-01
     0.016     0.276   0.203815E-01
     0.016     0.283   0.198616E-01
     0.016     0.291   0.193542E-01
     0.016     0.299   0.188589E-01
     0.016     0.307   0.183756E-01
     0.016     0.315   0.179037E-01
     0.016     0.323   0.174432E-01
     0.016     0.331   0.169936E-01
     0.016     0.339   0.165548E-01
     0.016     0.346   0.161265E-01
     0.016     0.354   0.157084E-01
     0.016     0.362   0.153002E-01
     0.016     0.370   0.149018E-01
     0.016     0.378   0.145129E-01
     0.016     0.386   0.141332E-01
     0.016     0.394   0.137625E-01
     0.016     0.402   0.134006E-01
     0.016     0.409   0.130473E-01
     0.016     0.417   0.127023E-01
     0.016     0.425   0.123655E-01
     0.016     0.433   0.120367E-01
     0.016     0.441   0.117155E-01
     0.016     0.449   0.114020E-01
     0.016     0.457   0.110958E-01
     0.016     0.465   0.107968E-01
     0.016     0.472   0.105047E-01
     0.016     0.480   0.102196E-01
     0.016     0.488   0.994099E-02
     0.016     0.496   0.966896E-02
     0.016     0.504   0.940314E-02
     0.016     0.512   0.914356E-02
     0.016     0.520   0.888987E-02
     0.016     0.528   0.864211E-02
     0.016     0.535   0.839993E-02
     0.016     0.543   0.816337E-02
     0.016     0.551   0.793210E-02
     0.016     0.559   0.770617E-02
     0.016     0.567   0.748524E-02
     0.016     0.575   0.726936E-02
     0.016     0.583   0.705823E-02
     0.016     0.591   0.685187E-02
     0.016     0.598   0.665000E-02
     0.016     0.606   0.645265E-02
     0.016     0.614   0.625954E-02
     0.016     0.622   0.607070E-02
     0.016     0.630   0.588586E-02
     0.016     0.638   0.570506E-02
     0.016     0.646   0.552803E-02
     0.016     0.654   0.535480E-02
     0.016     0.661   0.518512E-02
     0.016     0.669   0.501903E-02
     0.016     0.677   0.485627E-02
     0.016     0.685   0.469688E-02
     0.016     0.693   0.454063E-02
     0.016     0.701   0.438754E-02
     0.016     0.709   0.423738E-02
     0.016     0.717   0.409019E-02
     0.016     0.724   0.394573E-02
     0.016     0.732   0.380406E-02
     0.016     0.740   0.366494E-02
     0.016     0.748   0.352840E-02
     0.016     0.756   0.339424E-02
     0.016     0.764   0.326249E-02
     0.016     0.772   0.313293E-02
     0.016     0.780   0.300561E-02
     0.016     0.787   0.288031E-02
     0.016     0.795   0.275708E-02
     0.016     0.803   0.263571E-02
     0.016     0.811   0.251622E-02
     0.016     0.819   0.239845E-02
     0.016     0.827   0.228240E-02
     0.016     0.835   0.216790E-02
     0.016     0.843   0.205497E-02
     0.016     0.850   0.194343E-02
     0.016     0.858   0.183330E-02
     0.016     0.866   0.172442E-02
     0.016     0.874   0.161679E-02
     0.016     0.882   0.151026E-02
     0.016     0.890   0.140483E-02
     0.016     0.898   0.130036E-02
     0.016     0.906   0.119684E-02
     0.016     0.913   0.109414E-02
     0.016     0.921   0.992232E-03
     0.016     0.929   0.891007E-03
     0.016     0.937   0.790432E-03
     0.016     0.945   0.690399E-03
     0.016     0.953   0.590871E-03
     0.016     0.961   0.491748E-03
     0.016     0.969   0.392985E-03
     0.016     0.976   0.294492E-03
     0.016     0.984   0.196214E-03
     0.016     0.992   0.980711E-04
     0.016     1.000    0.00000    
     0.024     0.000   0.741428E-01
     0.024     0.008   0.723125E-01
     0.024     0.016   0.705265E-01
     0.024     0.024   0.687837E-01
     0.024     0.031   0.670830E-01
     0.024     0.039   0.654234E-01
     0.024     0.047   0.638039E-01
     0.024     0.055   0.622236E-01
     0.024     0.063   0.606814E-01
     0.024     0.071   0.591765E-01
     0.024     0.079   0.577079E-01
     0.024     0.087   0.562748E-01
     0.024     0.094   0.548762E-01
     0.024     0.102   0.535114E-01
     0.024     0.110   0.521796E-01
     0.024     0.118   0.508799E-01
     0.024     0.126   0.496115E-01
     0.024     0.134   0.483737E-01
     0.024     0.142   0.471658E-01
     0.024     0.150   0.459869E-01
     0.024     0.157   0.448365E-01
     0.024     0.165   0.437138E-01
     0.024     0.173   0.426182E-01
     0.024     0.181   0.415488E-01
     0.024     0.189   0.405053E-01
     0.024     0.197   0.394869E-01
     0.024     0.205   0.384930E-01
     0.024     0.213   0.375229E-01
     0.024     0.220   0.365763E-01
     0.024     0.228   0.356523E-01
     0.024     0.236   0.347507E-01
     0.024     0.244   0.338706E-01
     0.024     0.252   0.330117E-01
     0.024     0.260   0.321733E-01
     0.024     0.268   0.313552E-01
     0.024     0.276   0.305566E-01
     0.024     0.283   0.297772E-01
     0.024     0.291   0.290165E-01
     0.024     0.299   0.282740E-01
     0.024     0.307   0.275492E-01
     0.024     0.315   0.268419E-01
     0.024     0.323   0.261514E-01
     0.024     0.331   0.254775E-01
     0.024     0.339   0.248195E-01
     0.024     0.346   0.241774E-01
     0.024     0.354   0.235505E-01
     0.024     0.362   0.229387E-01
     0.024     0.370   0.223413E-01
     0.024     0.378   0.217582E-01
     0.024     0.386   0.211889E-01
     0.024     0.394   0.206332E-01
     0.024     0.402   0.200906E-01
     0.024     0.409   0.195610E-01
     0.024     0.417   0.190437E-01
     0.024     0.425   0.185388E-01
     0.024     0.433   0.180457E-01
     0.024     0.441   0.175644E-01
     0.024     0.449   0.170942E-01
     0.024     0.457   0.166352E-01
     0.024     0.465   0.161869E-01
     0.024     0.472   0.157491E-01
     0.024     0.480   0.153215E-01
     0.024     0.488   0.149040E-01
     0.024     0.496   0.144960E-01
     0.024     0.504   0.140976E-01
     0.024     0.512   0.137083E-01
     0.024     0.520   0.133281E-01
     0.024     0.528   0.129565E-01
     0.024     0.535   0.125935E-01
     0.024     0.543   0.122387E-01
     0.024     0.551   0.118922E-01
     0.024     0.559   0.115533E-01
     0.024     0.567   0.112222E-01
     0.024     0.575   0.108984E-01
     0.024     0.583   0.105820E-01
     0.024     0.591   0.102725E-01
     0.024     0.598   0.996998E-02
     0.024     0.606   0.967398E-02
     0.024     0.614   0.938458E-02
     0.024     0.622   0.910135E-02
     0.024     0.630   0.882435E-02
     0.024     0.638   0.855317E-02
     0.024     0.646   0.828787E-02
     0.024     0.654   0.802805E-02
     0.024     0.661   0.777377E-02
     0.024     0.669   0.752465E-02
     0.024     0.677   0.728074E-02
     0.024     0.685   0.704168E-02
     0.024     0.693   0.680752E-02
     0.024     0.701   0.657790E-02
     0.024     0.709   0.635288E-02
     0.024     0.717   0.613210E-02
     0.024     0.724   0.591563E-02
     0.024     0.732   0.570313E-02
     0.024     0.740   0.549465E-02
     0.024     0.748   0.528986E-02
     0.024     0.756   0.508881E-02
     0.024     0.764   0.489119E-02
     0.024     0.772   0.469704E-02
     0.024     0.780   0.450607E-02
     0.024     0.787   0.431831E-02
     0.024     0.795   0.413346E-02
     0.024     0.803   0.395158E-02
     0.024     0.811   0.377238E-02
     0.024     0.819   0.359588E-02
     0.024     0.827   0.342182E-02
     0.024     0.835   0.325023E-02
     0.024     0.843   0.308085E-02
     0.024     0.850   0.291369E-02
     0.024     0.858   0.274852E-02
     0.024     0.866   0.258534E-02
     0.024     0.874   0.242392E-02
     0.024     0.882   0.226426E-02
     0.024     0.890   0.210615E-02
     0.024     0.898   0.194957E-02
     0.024     0.906   0.179433E-02
     0.024     0.913   0.164039E-02
     0.024     0.921   0.148757E-02
     0.024     0.929   0.133584E-02
     0.024     0.937   0.118503E-02
     0.024     0.945   0.103508E-02
     0.024     0.953   0.885844E-03
     0.024     0.961   0.737254E-03
     0.024     0.969   0.589170E-03
     0.024     0.976   0.441517E-03
     0.024     0.984   0.294168E-03
     0.024     0.992   0.147033E-03
     0.024     1.000    0.00000    
     0.031     0.000   0.987864E-01
     0.031     0.008   0.963478E-01
     0.031     0.016   0.939682E-01
     0.031     0.024   0.916461E-01
     0.031     0.031   0.893801E-01
     0.031     0.039   0.871689E-01
     0.031     0.047   0.850112E-01
     0.031     0.055   0.829055E-01
     0.031     0.063   0.808508E-01
     0.031     0.071   0.788457E-01
     0.031     0.079   0.768889E-01
     0.031     0.087   0.749795E-01
     0.031     0.094   0.731161E-01
     0.031     0.102   0.712977E-01
     0.031     0.110   0.695231E-01
     0.031     0.118   0.677914E-01
     0.031     0.126   0.661014E-01
     0.031     0.134   0.644523E-01
     0.031     0.142   0.628428E-01
     0.031     0.150   0.612722E-01
     0.031     0.157   0.597393E-01
     0.031     0.165   0.582435E-01
     0.031     0.173   0.567836E-01
     0.031     0.181   0.553589E-01
     0.031     0.189   0.539685E-01
     0.031     0.197   0.526116E-01
     0.031     0.205   0.512873E-01
     0.031     0.213   0.499949E-01
     0.031     0.220   0.487335E-01
     0.031     0.228   0.475026E-01
     0.031     0.236   0.463011E-01
     0.031     0.244   0.451286E-01
     0.031     0.252   0.439841E-01
     0.031     0.260   0.428672E-01
     0.031     0.268   0.417770E-01
     0.031     0.276   0.407131E-01
     0.031     0.283   0.396746E-01
     0.031     0.291   0.386611E-01
     0.031     0.299   0.376717E-01
     0.031     0.307   0.367061E-01
     0.031     0.315   0.357636E-01
     0.031     0.323   0.348437E-01
     0.031     0.331   0.339456E-01
     0.031     0.339   0.330692E-01
     0.031     0.346   0.322135E-01
     0.031     0.354   0.313784E-01
     0.031     0.362   0.305630E-01
     0.031     0.370   0.297672E-01
     0.031     0.378   0.289902E-01
     0.031     0.386   0.282318E-01
     0.031     0.394   0.274912E-01
     0.031     0.402   0.267684E-01
     0.031     0.409   0.260626E-01
     0.031     0.417   0.253736E-01
     0.031     0.425   0.247007E-01
     0.031     0.433   0.240439E-01
     0.031     0.441   0.234024E-01
     0.031     0.449   0.227761E-01
     0.031     0.457   0.221644E-01
     0.031     0.465   0.215672E-01
     0.031     0.472   0.209838E-01
     0.031     0.480   0.204142E-01
     0.031     0.488   0.198577E-01
     0.031     0.496   0.193143E-01
     0.031     0.504   0.187833E-01
     0.031     0.512   0.182647E-01
     0.031     0.520   0.177580E-01
     0.031     0.528   0.172631E-01
     0.031     0.535   0.167793E-01
     0.031     0.543   0.163068E-01
     0.031     0.551   0.158448E-01
     0.031     0.559   0.153935E-01
     0.031     0.567   0.149522E-01
     0.031     0.575   0.145209E-01
     0.031     0.583   0.140992E-01
     0.031     0.591   0.136870E-01
     0.031     0.598   0.132837E-01
     0.031     0.606   0.128895E-01
     0.031     0.614   0.125038E-01
     0.031     0.622   0.121266E-01
     0.031     0.630   0.117573E-01
     0.031     0.638   0.113962E-01
     0.031     0.646   0.110425E-01
     0.031     0.654   0.106965E-01
     0.031     0.661   0.103576E-01
     0.031     0.669   0.100258E-01
     0.031     0.677   0.970065E-02
     0.031     0.685   0.938227E-02
     0.031     0.693   0.907014E-02
     0.031     0.701   0.876434E-02
     0.031     0.709   0.846438E-02
     0.031     0.717   0.817037E-02
     0.031     0.724   0.788181E-02
     0.031     0.732   0.759881E-02
     0.031     0.740   0.732090E-02
     0.031     0.748   0.704817E-02
     0.031     0.756   0.678017E-02
     0.031     0.764   0.651699E-02
     0.031     0.772   0.625819E-02
     0.031     0.780   0.600386E-02
     0.031     0.787   0.575358E-02
     0.031     0.795   0.550740E-02
     0.031     0.803   0.526496E-02
     0.031     0.811   0.502629E-02
     0.031     0.819   0.479103E-02
     0.031     0.827   0.455922E-02
     0.031     0.835   0.433050E-02
     0.031     0.843   0.410491E-02
     0.031     0.850   0.388211E-02
     0.031     0.858   0.366211E-02
     0.031     0.866   0.344462E-02
     0.031     0.874   0.322962E-02
     0.031     0.882   0.301683E-02
     0.031     0.890   0.280623E-02
     0.031     0.898   0.259755E-02
     0.031     0.906   0.239075E-02
     0.031     0.913   0.218560E-02
     0.031     0.921   0.198204E-02
     0.031     0.929   0.177983E-02
     0.031     0.937   0.157893E-02
     0.031     0.945   0.137911E-02
     0.031     0.953   0.118030E-02
     0.031     0.961   0.982293E-03
     0.031     0.969   0.785008E-03
     0.031     0.976   0.588263E-03
     0.031     0.984   0.391948E-03
     0.031     0.992   0.195902E-03
     0.031     1.000    0.00000    
     0.039     0.000   0.123370    
     0.039     0.008   0.120324    
     0.039     0.016   0.117352    
     0.039     0.024   0.114452    
     0.039     0.031   0.111623    
     0.039     0.039   0.108861    
     0.039     0.047   0.106166    
     0.039     0.055   0.103537    
     0.039     0.063   0.100971    
     0.039     0.071   0.984665E-01
     0.039     0.079   0.960229E-01
     0.039     0.087   0.936382E-01
     0.039     0.094   0.913112E-01
     0.039     0.102   0.890402E-01
     0.039     0.110   0.868241E-01
     0.039     0.118   0.846614E-01
     0.039     0.126   0.825510E-01
     0.039     0.134   0.804913E-01
     0.039     0.142   0.784814E-01
     0.039     0.150   0.765198E-01
     0.039     0.157   0.746056E-01
     0.039     0.165   0.727374E-01
     0.039     0.173   0.709144E-01
     0.039     0.181   0.691351E-01
     0.039     0.189   0.673987E-01
     0.039     0.197   0.657041E-01
     0.039     0.205   0.640503E-01
     0.039     0.213   0.624362E-01
     0.039     0.220   0.608610E-01
     0.039     0.228   0.593236E-01
     0.039     0.236   0.578233E-01
     0.039     0.244   0.563588E-01
     0.039     0.252   0.549297E-01
     0.039     0.260   0.535347E-01
     0.039     0.268   0.521734E-01
     0.039     0.276   0.508446E-01
     0.039     0.283   0.495478E-01
     0.039     0.291   0.482819E-01
     0.039     0.299   0.470465E-01
     0.039     0.307   0.458405E-01
     0.039     0.315   0.446635E-01
     0.039     0.323   0.435145E-01
     0.039     0.331   0.423932E-01
     0.039     0.339   0.412984E-01
     0.039     0.346   0.402300E-01
     0.039     0.354   0.391869E-01
     0.039     0.362   0.381688E-01
     0.039     0.370   0.371747E-01
     0.039     0.378   0.362046E-01
     0.039     0.386   0.352572E-01
     0.039     0.394   0.343326E-01
     0.039     0.402   0.334297E-01
     0.039     0.409   0.325484E-01
     0.039     0.417   0.316878E-01
     0.039     0.425   0.308477E-01
     0.039     0.433   0.300272E-01
     0.039     0.441   0.292262E-01
     0.039     0.449   0.284439E-01
     0.039     0.457   0.276802E-01
     0.039     0.465   0.269341E-01
     0.039     0.472   0.262058E-01
     0.039     0.480   0.254942E-01
     0.039     0.488   0.247994E-01
     0.039     0.496   0.241205E-01
     0.039     0.504   0.234576E-01
     0.039     0.512   0.228099E-01
     0.039     0.520   0.221772E-01
     0.039     0.528   0.215589E-01
     0.039     0.535   0.209550E-01
     0.039     0.543   0.203646E-01
     0.039     0.551   0.197879E-01
     0.039     0.559   0.192241E-01
     0.039     0.567   0.186731E-01
     0.039     0.575   0.181344E-01
     0.039     0.583   0.176079E-01
     0.039     0.591   0.170929E-01
     0.039     0.598   0.165895E-01
     0.039     0.606   0.160970E-01
     0.039     0.614   0.156155E-01
     0.039     0.622   0.151442E-01
     0.039     0.630   0.146833E-01
     0.039     0.638   0.142320E-01
     0.039     0.646   0.137906E-01
     0.039     0.654   0.133582E-01
     0.039     0.661   0.129351E-01
     0.039     0.669   0.125206E-01
     0.039     0.677   0.121148E-01
     0.039     0.685   0.117170E-01
     0.039     0.693   0.113274E-01
     0.039     0.701   0.109453E-01
     0.039     0.709   0.105709E-01
     0.039     0.717   0.102035E-01
     0.039     0.724   0.984330E-02
     0.039     0.732   0.948971E-02
     0.039     0.740   0.914280E-02
     0.039     0.748   0.880204E-02
     0.039     0.756   0.846751E-02
     0.039     0.764   0.813868E-02
     0.039     0.772   0.781563E-02
     0.039     0.780   0.749786E-02
     0.039     0.787   0.718543E-02
     0.039     0.795   0.687787E-02
     0.039     0.803   0.657522E-02
     0.039     0.811   0.627703E-02
     0.039     0.819   0.598335E-02
     0.039     0.827   0.569373E-02
     0.039     0.835   0.540821E-02
     0.039     0.843   0.512637E-02
     0.039     0.850   0.484823E-02
     0.039     0.858   0.457339E-02
     0.039     0.866   0.430187E-02
     0.039     0.874   0.403328E-02
     0.039     0.882   0.376761E-02
     0.039     0.890   0.350453E-02
     0.039     0.898   0.324399E-02
     0.039     0.906   0.298567E-02
     0.039     0.913   0.272952E-02
     0.039     0.921   0.247524E-02
     0.039     0.929   0.222277E-02
     0.039     0.937   0.197183E-02
     0.039     0.945   0.172232E-02
     0.039     0.953   0.147400E-02
     0.039     0.961   0.122675E-02
     0.039     0.969   0.980348E-03
     0.039     0.976   0.734661E-03
     0.039     0.984   0.489479E-03
     0.039     0.992   0.244656E-03
     0.039     1.000    0.00000    
     0.047     0.000   0.147877    
     0.047     0.008   0.144227    
     0.047     0.016   0.140665    
     0.047     0.024   0.137189    
     0.047     0.031   0.133797    
     0.047     0.039   0.130487    
     0.047     0.047   0.127257    
     0.047     0.055   0.124105    
     0.047     0.063   0.121029    
     0.047     0.071   0.118027    
     0.047     0.079   0.115098    
     0.047     0.087   0.112240    
     0.047     0.094   0.109450    
     0.047     0.102   0.106728    
     0.047     0.110   0.104072    
     0.047     0.118   0.101480    
     0.047     0.126   0.989499E-01
     0.047     0.134   0.964812E-01
     0.047     0.142   0.940719E-01
     0.047     0.150   0.917208E-01
     0.047     0.157   0.894262E-01
     0.047     0.165   0.871870E-01
     0.047     0.173   0.850016E-01
     0.047     0.181   0.828690E-01
     0.047     0.189   0.807876E-01
     0.047     0.197   0.787564E-01
     0.047     0.205   0.767740E-01
     0.047     0.213   0.748394E-01
     0.047     0.220   0.729512E-01
     0.047     0.228   0.711085E-01
     0.047     0.236   0.693099E-01
     0.047     0.244   0.675547E-01
     0.047     0.252   0.658415E-01
     0.047     0.260   0.641697E-01
     0.047     0.268   0.625377E-01
     0.047     0.276   0.609451E-01
     0.047     0.283   0.593904E-01
     0.047     0.291   0.578733E-01
     0.047     0.299   0.563923E-01
     0.047     0.307   0.549469E-01
     0.047     0.315   0.535359E-01
     0.047     0.323   0.521589E-01
     0.047     0.331   0.508146E-01
     0.047     0.339   0.495026E-01
     0.047     0.346   0.482217E-01
     0.047     0.354   0.469716E-01
     0.047     0.362   0.457510E-01
     0.047     0.370   0.445597E-01
     0.047     0.378   0.433966E-01
     0.047     0.386   0.422613E-01
     0.047     0.394   0.411528E-01
     0.047     0.402   0.400707E-01
     0.047     0.409   0.390141E-01
     0.047     0.417   0.379827E-01
     0.047     0.425   0.369755E-01
     0.047     0.433   0.359923E-01
     0.047     0.441   0.350320E-01
     0.047     0.449   0.340945E-01
     0.047     0.457   0.331788E-01
     0.047     0.465   0.322848E-01
     0.047     0.472   0.314115E-01
     0.047     0.480   0.305588E-01
     0.047     0.488   0.297257E-01