Title="Temperature Data"
Variables="X","Y","T"
 
Zone I=   128, J=   128, F=POINT
     0.000     0.000   0.467902-309
     0.000     0.008   0.689945-309
     0.000     0.016    0.00000    
     0.000     0.024    0.00000    
     0.000     0.031   0.601347-153
     0.000     0.039   0.603687-153
     0.000     0.047   0.337734E-56
     0.000     0.055   0.305748E-56
     0.000     0.063   0.172289-258
     0.000     0.071   0.130371E-75
     0.000     0.079   0.696312E-76
     0.000     0.087   0.125766E-75
     0.000     0.094   0.232161E+26
     0.000     0.102   0.601347-153
     0.000     0.110   0.603687-153
     0.000     0.118   0.200358E-75
     0.000     0.126   0.179779E-51
     0.000     0.134   0.188549-258
     0.000     0.142   0.130371E-75
     0.000     0.150   0.696312E-76
     0.000     0.157   0.125766E-75
     0.000     0.165   0.219930E+26
     0.000     0.173   0.601347-153
     0.000     0.181   0.603687-153
     0.000     0.189   0.165583E-46
     0.000     0.197   0.138240E-46
     0.000     0.205   0.196679-258
     0.000     0.213   0.130371E-75
     0.000     0.220   0.696312E-76
     0.000     0.228   0.125766E-75
     0.000     0.236   0.232350E+26
     0.000     0.244   0.601347-153
     0.000     0.252   0.603687-153
     0.000     0.260   0.601033E-66
     0.000     0.268   0.102986E-70
     0.000     0.276   0.204809-258
     0.000     0.283   0.130371E-75
     0.000     0.291   0.696312E-76
     0.000     0.299   0.125766E-75
     0.000     0.307   0.304650E+26
     0.000     0.315   0.601347-153
     0.000     0.323   0.603687-153
     0.000     0.331   0.771446E-42
     0.000     0.339   0.113105E-41
     0.000     0.346   0.139801-258
     0.000     0.354   0.130371E-75
     0.000     0.362   0.696312E-76
     0.000     0.370   0.125766E-75
     0.000     0.378   0.232019E+26
     0.000     0.386   0.601347-153
     0.000     0.394   0.603687-153
     0.000     0.402   0.466819E-61
     0.000     0.409   0.476188E-37
     0.000     0.417   0.147931-258
     0.000     0.425   0.130371E-75
     0.000     0.433   0.696312E-76
     0.000     0.441   0.125766E-75
     0.000     0.449   0.292466E+26
     0.000     0.457   0.601347-153
     0.000     0.465   0.603687-153
     0.000     0.472   0.389112E-32
     0.000     0.480   0.786059E-66
     0.000     0.488   0.156061-258
     0.000     0.496   0.130371E-75
     0.000     0.504   0.696312E-76
     0.000     0.512   0.125766E-75
     0.000     0.520   0.232113E+26
     0.000     0.528   0.601347-153
     0.000     0.535   0.603687-153
     0.000     0.543   0.231819E-51
     0.000     0.551   0.771622E-42
     0.000     0.559   0.172321-258
     0.000     0.567   0.130371E-75
     0.000     0.575   0.696312E-76
     0.000     0.583   0.125766E-75
     0.000     0.591   0.231972E+26
     0.000     0.598   0.601347-153
     0.000     0.606   0.603687-153
     0.000     0.614   0.209028E-75
     0.000     0.622   0.191655E-75
     0.000     0.630   0.180451-258
     0.000     0.638   0.130371E-75
     0.000     0.646   0.696312E-76
     0.000     0.654   0.125766E-75
     0.000     0.661   0.207841E+26
     0.000     0.669   0.601347-153
     0.000     0.677   0.603687-153
     0.000     0.685   0.172452E-46
     0.000     0.693   0.950813E-42
     0.000     0.701   0.196710-258
     0.000     0.709   0.130371E-75
     0.000     0.717   0.696312E-76
     0.000     0.724   0.125766E-75
     0.000     0.732   0.280565E+26
     0.000     0.740   0.601347-153
     0.000     0.748   0.603687-153
     0.000     0.756   0.638270E-66
     0.000     0.764   0.331108E-32
     0.000     0.772   0.204840-258
     0.000     0.780   0.130371E-75
     0.000     0.787   0.696312E-76
     0.000     0.795   0.125766E-75
     0.000     0.803   0.280566E+26
     0.000     0.811   0.601347-153
     0.000     0.819   0.603687-153
     0.000     0.827   0.535077E-37
     0.000     0.835   0.385465E-56
     0.000     0.843   0.139833-258
     0.000     0.850   0.130371E-75
     0.000     0.858   0.696312E-76
     0.000     0.866   0.125766E-75
     0.000     0.874   0.304744E+26
     0.000     0.882   0.601347-153
     0.000     0.890   0.603687-153
     0.000     0.898   0.491223E-61
     0.000     0.906   0.675507E-66
     0.000     0.913   0.156093-258
     0.000     0.921   0.130371E-75
     0.000     0.929   0.696312E-76
     0.000     0.937   0.125766E-75
     0.000     0.945   0.232397E+26
     0.000     0.953   0.601347-153
     0.000     0.961   0.603687-153
     0.000     0.969   0.408446E-32
     0.000     0.976   0.189935E-51
     0.000     0.984   0.164223-258
     0.000     0.992   0.130371E-75
     0.000     1.000   0.696312E-76
     0.008     0.000   0.125766E-75
     0.008     0.008   0.556776E+21
     0.008     0.016   0.163368E+22
     0.008     0.024   0.411495E+22
     0.008     0.031   0.979440E+22
     0.008     0.039   0.223712E+23
     0.008     0.047   0.494431E+23
     0.008     0.055   0.106886E+24
     0.008     0.063   0.229700E+24
     0.008     0.071   0.502453E+24
     0.008     0.079   0.115513E+25
     0.008     0.087   0.289529E+25
     0.008     0.094   0.815663E+25
     0.008     0.102   0.290300E+25
     0.008     0.110   0.117572E+25
     0.008     0.118   0.549071E+24
     0.008     0.126   0.330880E+24
     0.008     0.134   0.324467E+24
     0.008     0.142   0.525441E+24
     0.008     0.150   0.111670E+25
     0.008     0.157   0.275272E+25
     0.008     0.165   0.773145E+25
     0.008     0.173   0.275273E+25
     0.008     0.181   0.111673E+25
     0.008     0.189   0.525492E+24
     0.008     0.197   0.324589E+24
     0.008     0.205   0.331174E+24
     0.008     0.213   0.549787E+24
     0.008     0.220   0.117749E+25
     0.008     0.228   0.290754E+25
     0.008     0.236   0.816868E+25
     0.008     0.244   0.291050E+25
     0.008     0.252   0.118542E+25
     0.008     0.260   0.567741E+24
     0.008     0.268   0.370140E+24
     0.008     0.276   0.408373E+24
     0.008     0.283   0.708763E+24
     0.008     0.291   0.153803E+25
     0.008     0.299   0.380870E+25
     0.008     0.307   0.107065E+26
     0.008     0.315   0.380869E+25
     0.008     0.323   0.153800E+25
     0.008     0.331   0.708695E+24
     0.008     0.339   0.408229E+24
     0.008     0.346   0.369838E+24
     0.008     0.354   0.567098E+24
     0.008     0.362   0.118398E+25
     0.008     0.370   0.290689E+25
     0.008     0.378   0.815834E+25
     0.008     0.386   0.290647E+25
     0.008     0.394   0.118284E+25
     0.008     0.402   0.564515E+24
     0.008     0.409   0.364234E+24
     0.008     0.417   0.396180E+24
     0.008     0.425   0.682339E+24
     0.008     0.433   0.147741E+25
     0.008     0.441   0.365683E+25
     0.008     0.449   0.102787E+26
     0.008     0.457   0.365683E+25
     0.008     0.465   0.147742E+25
     0.008     0.472   0.682356E+24
     0.008     0.480   0.396215E+24
     0.008     0.488   0.364302E+24
     0.008     0.496   0.564646E+24
     0.008     0.504   0.118310E+25
     0.008     0.512   0.290712E+25
     0.008     0.520   0.816035E+25
     0.008     0.528   0.290500E+25
     0.008     0.535   0.117744E+25
     0.008     0.543   0.551824E+24
     0.008     0.551   0.336475E+24
     0.008     0.559   0.336381E+24
     0.008     0.567   0.551467E+24
     0.008     0.575   0.117652E+25
     0.008     0.583   0.290264E+25
     0.008     0.591   0.815389E+25
     0.008     0.598   0.290179E+25
     0.008     0.606   0.117425E+25
     0.008     0.614   0.546322E+24
     0.008     0.622   0.325216E+24
     0.008     0.630   0.312467E+24
     0.008     0.638   0.499305E+24
     0.008     0.646   0.105670E+25
     0.008     0.654   0.260238E+25
     0.008     0.661   0.730777E+25
     0.008     0.669   0.260408E+25
     0.008     0.677   0.106125E+25
     0.008     0.685   0.509605E+24
     0.008     0.693   0.334822E+24
     0.008     0.701   0.373288E+24
     0.008     0.709   0.651490E+24
     0.008     0.717   0.141603E+25
     0.008     0.724   0.350781E+25
     0.008     0.732   0.986116E+25
     0.008     0.740   0.351036E+25
     0.008     0.748   0.142284E+25
     0.008     0.756   0.666905E+24
     0.008     0.764   0.406746E+24
     0.008     0.772   0.406769E+24
     0.008     0.780   0.667002E+24
     0.008     0.787   0.142311E+25
     0.008     0.795   0.351107E+25
     0.008     0.803   0.986294E+25
     0.008     0.811   0.351192E+25
     0.008     0.819   0.142537E+25
     0.008     0.827   0.672127E+24
     0.008     0.835   0.417893E+24
     0.008     0.843   0.430666E+24
     0.008     0.850   0.719235E+24
     0.008     0.858   0.154314E+25
     0.008     0.866   0.381191E+25
     0.008     0.874   0.107107E+26
     0.008     0.882   0.381024E+25
     0.008     0.890   0.153872E+25
     0.008     0.898   0.709254E+24
     0.008     0.906   0.409122E+24
     0.008     0.913   0.371806E+24
     0.008     0.921   0.571668E+24
     0.008     0.929   0.119446E+25
     0.008     0.937   0.293059E+25
     0.008     0.945   0.821218E+25
     0.008     0.953   0.299637E+25
     0.008     0.961   0.136449E+25
     0.008     0.969   0.959221E+24
     0.008     0.976   0.129693E+25
     0.008     0.984   0.286601E+25
     0.008     0.992   0.812543E+25
     0.008     1.000   0.268240E+26
     0.016     0.000   0.601347-153
     0.016     0.008   0.947988E+21
     0.016     0.016   0.276891E+22
     0.016     0.024   0.692365E+22
     0.016     0.031   0.163039E+23
     0.016     0.039   0.366538E+23
     0.016     0.047   0.790809E+23
     0.016     0.055   0.164596E+24
     0.016     0.063   0.332492E+24
     0.016     0.071   0.655376E+24
     0.016     0.079   0.125996E+25
     0.016     0.087   0.231171E+25
     0.016     0.094   0.365699E+25
     0.016     0.102   0.232449E+25
     0.016     0.110   0.129365E+25
     0.016     0.118   0.729914E+24
     0.016     0.126   0.488289E+24
     0.016     0.134   0.479541E+24
     0.016     0.142   0.699956E+24
     0.016     0.150   0.123034E+25
     0.016     0.157   0.220652E+25
     0.016     0.165   0.347197E+25
     0.016     0.173   0.220653E+25
     0.016     0.181   0.123037E+25
     0.016     0.189   0.700039E+24
     0.016     0.197   0.479736E+24
     0.016     0.205   0.488743E+24
     0.016     0.213   0.730971E+24
     0.016     0.220   0.129610E+25
     0.016     0.228   0.233007E+25
     0.016     0.236   0.366907E+25
     0.016     0.244   0.233499E+25
     0.016     0.252   0.130908E+25
     0.016     0.260   0.759679E+24
     0.016     0.268   0.548740E+24
     0.016     0.276   0.601004E+24
     0.016     0.283   0.939055E+24
     0.016     0.291   0.168978E+25
     0.016     0.299   0.304914E+25
     0.016     0.307   0.480408E+25
     0.016     0.315   0.304912E+25
     0.016     0.323   0.168973E+25
     0.016     0.331   0.938947E+24
     0.016     0.339   0.600784E+24
     0.016     0.346   0.548310E+24
     0.016     0.354   0.758869E+24
     0.016     0.362   0.130763E+25
     0.016     0.370   0.233258E+25
     0.016     0.378   0.366602E+25
     0.016     0.386   0.233187E+25
     0.016     0.394   0.130576E+25
     0.016     0.402   0.754741E+24
     0.016     0.409   0.539681E+24
     0.016     0.417   0.583344E+24
     0.016     0.425   0.904574E+24
     0.016     0.433   0.162366E+25
     0.016     0.441   0.292794E+25
     0.016     0.449   0.461250E+25
     0.016     0.457   0.292795E+25
     0.016     0.465   0.162367E+25
     0.016     0.472   0.904601E+24
     0.016     0.480   0.583396E+24
     0.016     0.488   0.539772E+24
     0.016     0.496   0.754881E+24
     0.016     0.504   0.130593E+25
     0.016     0.512   0.233192E+25
     0.016     0.520   0.366533E+25
     0.016     0.528   0.232841E+25
     0.016     0.535   0.129666E+25
     0.016     0.543   0.734381E+24
     0.016     0.551   0.496926E+24
     0.016     0.559   0.496790E+24
     0.016     0.567   0.733890E+24
     0.016     0.575   0.129552E+25
     0.016     0.583   0.232599E+25
     0.016     0.591   0.366058E+25
     0.016     0.598   0.232458E+25
     0.016     0.606   0.129180E+25
     0.016     0.614   0.725665E+24
     0.016     0.622   0.479598E+24
     0.016     0.630   0.462176E+24
     0.016     0.638   0.665882E+24
     0.016     0.646   0.116499E+25
     0.016     0.654   0.208685E+25
     0.016     0.661   0.328333E+25
     0.016     0.669   0.208968E+25
     0.016     0.677   0.117243E+25
     0.016     0.685   0.682351E+24
     0.016     0.693   0.496598E+24
     0.016     0.701   0.549183E+24
     0.016     0.709   0.862840E+24
     0.016     0.717   0.155553E+25
     0.016     0.724   0.280846E+25
     0.016     0.732   0.442609E+25
     0.016     0.740   0.281269E+25
     0.016     0.748   0.156667E+25
     0.016     0.756   0.887487E+24
     0.016     0.764   0.600700E+24
     0.016     0.772   0.600740E+24
     0.016     0.780   0.887652E+24
     0.016     0.787   0.156713E+25
     0.016     0.795   0.281388E+25
     0.016     0.803   0.442901E+25
     0.016     0.811   0.281528E+25
     0.016     0.819   0.157084E+25
     0.016     0.827   0.895847E+24
     0.016     0.835   0.617868E+24
     0.016     0.843   0.635325E+24
     0.016     0.850   0.955745E+24
     0.016     0.858   0.169790E+25
     0.016     0.866   0.305347E+25
     0.016     0.874   0.480702E+25
     0.016     0.882   0.305071E+25
     0.016     0.890   0.169066E+25
     0.016     0.898   0.939812E+24
     0.016     0.906   0.602251E+24
     0.016     0.913   0.551541E+24
     0.016     0.921   0.766224E+24
     0.016     0.929   0.132390E+25
     0.016     0.937   0.236711E+25
     0.016     0.945   0.373569E+25
     0.016     0.953   0.246272E+25
     0.016     0.961   0.155389E+25
     0.016     0.969   0.122176E+25
     0.016     0.976   0.140062E+25
     0.016     0.984   0.206892E+25
     0.016     0.992   0.282597E+25
     0.016     1.000   0.603687-153
     0.024     0.000   0.505231E-37
     0.024     0.008   0.109304E+22
     0.024     0.016   0.317264E+22
     0.024     0.024   0.785572E+22
     0.024     0.031   0.182427E+23
     0.024     0.039   0.402148E+23
     0.024     0.047   0.843710E+23
     0.024     0.055   0.168658E+24
     0.024     0.063   0.321188E+24
     0.024     0.071   0.580567E+24
     0.024     0.079   0.983686E+24
     0.024     0.087   0.150975E+25
     0.024     0.094   0.191485E+25
     0.024     0.102   0.152398E+25
     0.024     0.110   0.102059E+25
     0.024     0.118   0.660056E+24
     0.024     0.126   0.480812E+24
     0.024     0.134   0.472890E+24
     0.024     0.142   0.634383E+24
     0.024     0.150   0.972201E+24
     0.024     0.157   0.144879E+25
     0.024     0.165   0.182266E+25
     0.024     0.173   0.144880E+25
     0.024     0.181   0.972239E+24
     0.024     0.189   0.634474E+24
     0.024     0.197   0.473098E+24
     0.024     0.205   0.481287E+24
     0.024     0.213   0.661137E+24
     0.024     0.220   0.102304E+25
     0.024     0.228   0.152944E+25
     0.024     0.236   0.192674E+25
     0.024     0.244   0.153492E+25
     0.024     0.252   0.103726E+25
     0.024     0.260   0.691750E+24
     0.024     0.268   0.542755E+24
     0.024     0.276   0.590230E+24
     0.024     0.283   0.846167E+24
     0.024     0.291   0.133077E+25
     0.024     0.299   0.199862E+25
     0.024     0.307   0.251870E+25
     0.024     0.315   0.199860E+25
     0.024     0.323   0.133071E+25
     0.024     0.331   0.846053E+24
     0.024     0.339   0.590006E+24
     0.024     0.346   0.542348E+24
     0.024     0.354   0.691067E+24
     0.024     0.362   0.103625E+25
     0.024     0.370   0.153378E+25
     0.024     0.378   0.192648E+25
     0.024     0.386   0.153299E+25
     0.024     0.394   0.103420E+25
     0.024     0.402   0.686665E+24
     0.024     0.409   0.533508E+24
     0.024     0.417   0.573161E+24
     0.024     0.425   0.815608E+24
     0.024     0.433   0.127915E+25
     0.024     0.441   0.191953E+25
     0.024     0.449   0.241859E+25
     0.024     0.457   0.191954E+25
     0.024     0.465   0.127917E+25
     0.024     0.472   0.815637E+24
     0.024     0.480   0.573212E+24
     0.024     0.488   0.533587E+24
     0.024     0.496   0.686755E+24
     0.024     0.504   0.103421E+25
     0.024     0.512   0.153259E+25
     0.024     0.520   0.192478E+25
     0.024     0.528   0.152868E+25
     0.024     0.535   0.102406E+25
     0.024     0.543   0.664893E+24
     0.024     0.551   0.489690E+24
     0.024     0.559   0.489558E+24
     0.024     0.567   0.664429E+24
     0.024     0.575   0.102303E+25
     0.024     0.583   0.152660E+25
     0.024     0.591   0.192076E+25
     0.024     0.598   0.152503E+25
     0.024     0.606   0.101895E+25
     0.024     0.614   0.655657E+24
     0.024     0.622   0.471944E+24
     0.024     0.630   0.456123E+24
     0.024     0.638   0.604219E+24
     0.024     0.646   0.921274E+24
     0.024     0.654   0.137099E+25
     0.024     0.661   0.172496E+25
     0.024     0.669   0.137413E+25
     0.024     0.677   0.929428E+24
     0.024     0.685   0.621782E+24
     0.024     0.693   0.491391E+24
     0.024     0.701   0.539161E+24
     0.024     0.709   0.777174E+24
     0.024     0.717   0.122486E+25
     0.024     0.724   0.184106E+25
     0.024     0.732   0.232163E+25
     0.024     0.740   0.184577E+25
     0.024     0.748   0.123706E+25
     0.024     0.756   0.803459E+24
     0.024     0.764   0.591944E+24
     0.024     0.772   0.591990E+24
     0.024     0.780   0.803649E+24
     0.024     0.787   0.123759E+25
     0.024     0.795   0.184712E+25
     0.024     0.803   0.232493E+25
     0.024     0.811   0.184869E+25
     0.024     0.819   0.124165E+25
     0.024     0.827   0.812388E+24
     0.024     0.835   0.609539E+24
     0.024     0.843   0.625390E+24
     0.024     0.850   0.863925E+24
     0.024     0.858   0.133952E+25
     0.024     0.866   0.200303E+25
     0.024     0.874   0.252113E+25
     0.024     0.882   0.199997E+25
     0.024     0.890   0.133160E+25
     0.024     0.898   0.846971E+24
     0.024     0.906   0.591638E+24
     0.024     0.913   0.545936E+24
     0.024     0.921   0.699108E+24
     0.024     0.929   0.105363E+25
     0.024     0.937   0.156952E+25
     0.024     0.945   0.199599E+25
     0.024     0.953   0.166064E+25
     0.024     0.961   0.125813E+25
     0.024     0.969   0.105554E+25
     0.024     0.976   0.108260E+25
     0.024     0.984   0.123153E+25
     0.024     0.992   0.113483E+25
     0.024     1.000   0.139872E-75
     0.031     0.000   0.164159-258
     0.031     0.008   0.101730E+22
     0.031     0.016   0.293255E+22
     0.031     0.024   0.718462E+22
     0.031     0.031   0.164412E+23
     0.031     0.039   0.355287E+23
     0.031     0.047   0.725526E+23
     0.031     0.055   0.139810E+24
     0.031     0.063   0.253345E+24
     0.031     0.071   0.428457E+24
     0.031     0.079   0.665829E+24
     0.031     0.087   0.921317E+24
     0.031     0.094   0.106691E+25
     0.031     0.102   0.934070E+24
     0.031     0.110   0.698379E+24
     0.031     0.118   0.496777E+24
     0.031     0.126   0.385649E+24
     0.031     0.134   0.379774E+24
     0.031     0.142   0.478466E+24
     0.031     0.150   0.666396E+24
     0.031     0.157   0.889530E+24
     0.031     0.165   0.101865E+25
     0.031     0.173   0.889543E+24
     0.031     0.181   0.666430E+24
     0.031     0.189   0.478546E+24
     0.031     0.197   0.379955E+24
     0.031     0.205   0.386056E+24
     0.031     0.213   0.497696E+24
     0.031     0.220   0.700456E+24
     0.031     0.228   0.938733E+24
     0.031     0.236   0.107722E+25
     0.031     0.244   0.943645E+24
     0.031     0.252   0.712993E+24
     0.031     0.260   0.524008E+24
     0.031     0.268   0.437002E+24
     0.031     0.276   0.472334E+24
     0.031     0.283   0.634742E+24
     0.031     0.291   0.908997E+24
     0.031     0.299   0.122472E+25
     0.031     0.307   0.140549E+25
     0.031     0.315   0.122470E+25
     0.031     0.323   0.908950E+24
     0.031     0.331   0.634644E+24
     0.031     0.339   0.472151E+24
     0.031     0.346   0.436688E+24
     0.031     0.354   0.523533E+24
     0.031     0.362   0.712410E+24
     0.031     0.370   0.943267E+24
     0.031     0.378   0.107796E+25
     0.031     0.386   0.942560E+24
     0.031     0.394   0.710607E+24
     0.031     0.402   0.519749E+24
     0.031     0.409   0.429362E+24
     0.031     0.417   0.458865E+24
     0.031     0.425   0.612181E+24
     0.031     0.433   0.874064E+24
     0.031     0.441   0.117649E+25
     0.031     0.449   0.134985E+25
     0.031     0.457   0.117650E+25
     0.031     0.465   0.874077E+24
     0.031     0.472   0.612205E+24
     0.031     0.480   0.458906E+24
     0.031     0.488   0.429416E+24
     0.031     0.496   0.519786E+24
     0.031     0.504   0.710510E+24
     0.031     0.512   0.941998E+24
     0.031     0.520   0.107614E+25
     0.031     0.528   0.938491E+24
     0.031     0.535   0.701557E+24
     0.031     0.543   0.500997E+24
     0.031     0.551   0.393033E+24
     0.031     0.559   0.392927E+24
     0.031     0.567   0.500628E+24
     0.031     0.575   0.700750E+24
     0.031     0.583   0.936855E+24
     0.031     0.591   0.107287E+25
     0.031     0.598   0.935447E+24
     0.031     0.606   0.697158E+24
     0.031     0.614   0.493089E+24
     0.031     0.622   0.378328E+24
     0.031     0.630   0.366559E+24
     0.031     0.638   0.456224E+24
     0.031     0.646   0.632002E+24
     0.031     0.654   0.842310E+24
     0.031     0.661   0.964936E+24
     0.031     0.669   0.845128E+24
     0.031     0.677   0.639193E+24
     0.031     0.685   0.471319E+24
     0.031     0.693   0.395790E+24
     0.031     0.701   0.431346E+24
     0.031     0.709   0.582768E+24
     0.031     0.717   0.836531E+24
     0.031     0.724   0.112832E+25
     0.031     0.732   0.129626E+25
     0.031     0.740   0.113253E+25
     0.031     0.748   0.847294E+24
     0.031     0.756   0.605360E+24
     0.031     0.764   0.475095E+24
     0.031     0.772   0.475138E+24
     0.031     0.780   0.605537E+24
     0.031     0.787   0.847785E+24
     0.031     0.795   0.113378E+25
     0.031     0.803   0.129927E+25
     0.031     0.811   0.113519E+25
     0.031     0.819   0.851364E+24
     0.031     0.827   0.613048E+24
     0.031     0.835   0.489683E+24
     0.031     0.843   0.501476E+24
     0.031     0.850   0.649984E+24
     0.031     0.858   0.916647E+24
     0.031     0.866   0.122851E+25
     0.031     0.874   0.140744E+25
     0.031     0.882   0.122576E+25
     0.031     0.890   0.909670E+24
     0.031     0.898   0.635447E+24
     0.031     0.906   0.473623E+24
     0.031     0.913   0.439919E+24
     0.031     0.921   0.530680E+24
     0.031     0.929   0.727580E+24
     0.031     0.937   0.973719E+24
     0.031     0.945   0.113538E+25
     0.031     0.953   0.104362E+25
     0.031     0.961   0.875232E+24
     0.031     0.969   0.760961E+24
     0.031     0.976   0.726142E+24
     0.031     0.984   0.699423E+24
     0.031     0.992   0.512982E+24
     0.031     1.000    0.00000    
     0.039     0.000    0.00000    
     0.039     0.008   0.810757E+21
     0.039     0.016   0.232148E+22
     0.039     0.024   0.562952E+22
     0.039     0.031   0.127047E+23
     0.039     0.039   0.269552E+23
     0.039     0.047   0.537406E+23
     0.039     0.055   0.100389E+24
     0.039     0.063   0.174819E+24
     0.039     0.071   0.281343E+24
     0.039     0.079   0.412265E+24
     0.039     0.087   0.536543E+24
     0.039     0.094   0.596913E+24
     0.039     0.102   0.546344E+24
     0.039     0.110   0.436917E+24
     0.039     0.118   0.331923E+24
     0.039     0.126   0.269806E+24
     0.039     0.134   0.265971E+24
     0.039     0.142   0.320285E+24
     0.039     0.150   0.417594E+24
     0.039     0.157   0.521227E+24
     0.039     0.165   0.571690E+24
     0.039     0.173   0.521237E+24
     0.039     0.181   0.417620E+24
     0.039     0.189   0.320345E+24
     0.039     0.197   0.266107E+24
     0.039     0.205   0.270110E+24
     0.039     0.213   0.332610E+24
     0.039     0.220   0.438478E+24
     0.039     0.228   0.549879E+24
     0.039     0.236   0.604799E+24
     0.039     0.244   0.553655E+24
     0.039     0.252   0.447972E+24
     0.039     0.260   0.352089E+24
     0.039     0.268   0.306685E+24
     0.039     0.276   0.329844E+24
     0.039     0.283   0.422887E+24
     0.039     0.291   0.567739E+24
     0.039     0.299   0.716213E+24
     0.039     0.307   0.787562E+24
     0.039     0.315   0.716199E+24
     0.039     0.323   0.567703E+24
     0.039     0.331   0.422815E+24
     0.039     0.339   0.329714E+24
     0.039     0.346   0.306474E+24
     0.039     0.354   0.351797E+24
     0.039     0.362   0.447677E+24
     0.039     0.370   0.553630E+24
     0.039     0.378   0.605718E+24
     0.039     0.386   0.553087E+24
     0.039     0.394   0.446312E+24
     0.039     0.402   0.348996E+24
     0.039     0.409   0.301214E+24
     0.039     0.417   0.320548E+24
     0.039     0.425   0.408068E+24
     0.039     0.433   0.546114E+24
     0.039     0.441   0.688156E+24
     0.039     0.449   0.756511E+24
     0.039     0.457   0.688160E+24
     0.039     0.465   0.546123E+24
     0.039     0.472   0.408086E+24
     0.039     0.480   0.320575E+24
     0.039     0.488   0.301247E+24
     0.039     0.496   0.349000E+24
     0.039     0.504   0.446186E+24
     0.039     0.512   0.552564E+24
     0.039     0.520   0.604191E+24
     0.039     0.528   0.549869E+24
     0.039     0.535   0.439406E+24
     0.039     0.543   0.335090E+24
     0.039     0.551   0.275126E+24
     0.039     0.559   0.275051E+24
     0.039     0.567   0.334829E+24
     0.039     0.575   0.438833E+24
     0.039     0.583   0.548690E+24
     0.039     0.591   0.601778E+24
     0.039     0.598   0.547609E+24
     0.039     0.606   0.436112E+24
     0.039     0.614   0.329248E+24
     0.039     0.622   0.264570E+24
     0.039     0.630   0.256859E+24
     0.039     0.638   0.305694E+24
     0.039     0.646   0.396349E+24
     0.039     0.654   0.493886E+24
     0.039     0.661   0.542054E+24
     0.039     0.669   0.496052E+24
     0.039     0.677   0.401795E+24
     0.039     0.685   0.316869E+24
     0.039     0.693   0.277846E+24
     0.039     0.701   0.301153E+24
     0.039     0.709   0.388135E+24
     0.039     0.717   0.522411E+24
     0.039     0.724   0.659935E+24
     0.039     0.732   0.726774E+24
     0.039     0.740   0.663176E+24
     0.039     0.748   0.530563E+24
     0.039     0.756   0.404861E+24
     0.039     0.764   0.332563E+24
     0.039     0.772   0.332598E+24
     0.039     0.780   0.405003E+24
     0.039     0.787   0.530954E+24
     0.039     0.795   0.664165E+24
     0.039     0.803   0.729133E+24
     0.039     0.811   0.665243E+24
     0.039     0.819   0.533664E+24
     0.039     0.827   0.410563E+24
     0.039     0.835   0.343040E+24
     0.039     0.843   0.350766E+24
     0.039     0.850   0.434163E+24
     0.039     0.858   0.573506E+24
     0.039     0.866   0.719076E+24
     0.039     0.874   0.788994E+24
     0.039     0.882   0.716967E+24
     0.039     0.890   0.568229E+24
     0.039     0.898   0.423427E+24
     0.039     0.906   0.330858E+24
     0.039     0.913   0.308978E+24
     0.039     0.921   0.357278E+24
     0.039     0.929   0.459130E+24
     0.039     0.937   0.576137E+24
     0.039     0.945   0.646928E+24
     0.039     0.953   0.622628E+24
     0.039     0.961   0.552447E+24
     0.039     0.969   0.489557E+24
     0.039     0.976   0.446135E+24
     0.039     0.984   0.387512E+24
     0.039     0.992   0.249267E+24
     0.039     1.000    0.00000    
     0.047     0.000    0.00000    
     0.047     0.008   0.569600E+21
     0.047     0.016   0.162106E+22
     0.047     0.024   0.389496E+22
     0.047     0.031   0.868227E+22
     0.047     0.039   0.181292E+23
     0.047     0.047   0.354176E+23
     0.047     0.055   0.645020E+23
     0.047     0.063   0.108889E+24
     0.047     0.071   0.168944E+24
     0.047     0.079   0.237825E+24
     0.047     0.087   0.298175E+24
     0.047     0.094   0.325392E+24
     0.047     0.102   0.304839E+24
     0.047     0.110   0.254377E+24
     0.047     0.118   0.202263E+24
     0.047     0.126   0.169913E+24
     0.047     0.134   0.167636E+24
     0.047     0.142   0.195478E+24
     0.047     0.150   0.243490E+24
     0.047     0.157   0.291321E+24
     0.047     0.165   0.312557E+24
     0.047     0.173   0.291327E+24
     0.047     0.181   0.243508E+24
     0.047     0.189   0.195519E+24
     0.047     0.197   0.167727E+24
     0.047     0.205   0.170117E+24
     0.047     0.213   0.202724E+24
     0.047     0.220   0.255433E+24
     0.047     0.228   0.307246E+24
     0.047     0.236   0.330778E+24
     0.047     0.244   0.309813E+24
     0.047     0.252   0.261808E+24
     0.047     0.260   0.215556E+24
     0.047     0.268   0.193613E+24
     0.047     0.276   0.207422E+24
     0.047     0.283   0.257081E+24
     0.047     0.291   0.330066E+24
     0.047     0.299   0.399565E+24
     0.047     0.307   0.429947E+24
     0.047     0.315   0.399556E+24
     0.047     0.323   0.330042E+24
     0.047     0.331   0.257033E+24
     0.047     0.339   0.207339E+24
     0.047     0.346   0.193485E+24
     0.047     0.354   0.215392E+24
     0.047     0.362   0.261675E+24
     0.047     0.370   0.309906E+24
     0.047     0.378   0.331538E+24
     0.047     0.386   0.309536E+24
     0.047     0.394   0.260758E+24
     0.047     0.402   0.213547E+24
     0.047     0.409   0.190106E+24
     0.047     0.417   0.201630E+24
     0.047     0.425   0.248180E+24
     0.047     0.433   0.317594E+24
     0.047     0.441   0.383988E+24
     0.047     0.449   0.413061E+24
     0.047     0.457   0.383990E+24
     0.047     0.465   0.317600E+24
     0.047     0.472   0.248191E+24
     0.047     0.480   0.201647E+24
     0.047     0.488   0.190122E+24