Title="Temperature Data"
Variables="X","Y","T"
 
Zone I=    64, J=    64, F=POINT
     0.000     0.000    0.00000    
     0.000     0.016    0.00000    
     0.000     0.032    0.00000    
     0.000     0.048    0.00000    
     0.000     0.063    0.00000    
     0.000     0.079    0.00000    
     0.000     0.095    0.00000    
     0.000     0.111    0.00000    
     0.000     0.127    0.00000    
     0.000     0.143    0.00000    
     0.000     0.159    0.00000    
     0.000     0.175    0.00000    
     0.000     0.190    0.00000    
     0.000     0.206    0.00000    
     0.000     0.222    0.00000    
     0.000     0.238    0.00000    
     0.000     0.254    0.00000    
     0.000     0.270    0.00000    
     0.000     0.286    0.00000    
     0.000     0.302    0.00000    
     0.000     0.317    0.00000    
     0.000     0.333    0.00000    
     0.000     0.349    0.00000    
     0.000     0.365    0.00000    
     0.000     0.381    0.00000    
     0.000     0.397    0.00000    
     0.000     0.413    0.00000    
     0.000     0.429    0.00000    
     0.000     0.444    0.00000    
     0.000     0.460    0.00000    
     0.000     0.476    0.00000    
     0.000     0.492    0.00000    
     0.000     0.508    0.00000    
     0.000     0.524    0.00000    
     0.000     0.540    0.00000    
     0.000     0.556    0.00000    
     0.000     0.571    0.00000    
     0.000     0.587    0.00000    
     0.000     0.603    0.00000    
     0.000     0.619    0.00000    
     0.000     0.635    0.00000    
     0.000     0.651    0.00000    
     0.000     0.667    0.00000    
     0.000     0.683    0.00000    
     0.000     0.698    0.00000    
     0.000     0.714    0.00000    
     0.000     0.730    0.00000    
     0.000     0.746    0.00000    
     0.000     0.762    0.00000    
     0.000     0.778    0.00000    
     0.000     0.794    0.00000    
     0.000     0.810    0.00000    
     0.000     0.825    0.00000    
     0.000     0.841    0.00000    
     0.000     0.857    0.00000    
     0.000     0.873    0.00000    
     0.000     0.889    0.00000    
     0.000     0.905    0.00000    
     0.000     0.921    0.00000    
     0.000     0.937    0.00000    
     0.000     0.952    0.00000    
     0.000     0.968    0.00000    
     0.000     0.984    0.00000    
     0.000     1.000    0.00000    
     0.016     0.000   0.498459E-01
     0.016     0.016   0.268712E-01
     0.016     0.032   0.111402E-01
     0.016     0.048   0.353751E-02
     0.016     0.063   0.864268E-03
     0.016     0.079   0.163319E-03
     0.016     0.095   0.239268E-04
     0.016     0.111   0.271072E-05
     0.016     0.127   0.235320E-06
     0.016     0.143   0.153695E-07
     0.016     0.159   0.731217E-09
     0.016     0.175   0.239313E-10
     0.016     0.190   0.481980E-12
     0.016     0.206   0.450509E-14
     0.016     0.222    0.00000    
     0.016     0.238    0.00000    
     0.016     0.254    0.00000    
     0.016     0.270    0.00000    
     0.016     0.286    0.00000    
     0.016     0.302    0.00000    
     0.016     0.317    0.00000    
     0.016     0.333    0.00000    
     0.016     0.349    0.00000    
     0.016     0.365    0.00000    
     0.016     0.381    0.00000    
     0.016     0.397    0.00000    
     0.016     0.413    0.00000    
     0.016     0.429    0.00000    
     0.016     0.444    0.00000    
     0.016     0.460    0.00000    
     0.016     0.476    0.00000    
     0.016     0.492    0.00000    
     0.016     0.508    0.00000    
     0.016     0.524    0.00000    
     0.016     0.540    0.00000    
     0.016     0.556    0.00000    
     0.016     0.571    0.00000    
     0.016     0.587    0.00000    
     0.016     0.603    0.00000    
     0.016     0.619    0.00000    
     0.016     0.635    0.00000    
     0.016     0.651    0.00000    
     0.016     0.667    0.00000    
     0.016     0.683    0.00000    
     0.016     0.698    0.00000    
     0.016     0.714    0.00000    
     0.016     0.730    0.00000    
     0.016     0.746    0.00000    
     0.016     0.762    0.00000    
     0.016     0.778    0.00000    
     0.016     0.794    0.00000    
     0.016     0.810    0.00000    
     0.016     0.825    0.00000    
     0.016     0.841    0.00000    
     0.016     0.857    0.00000    
     0.016     0.873    0.00000    
     0.016     0.889    0.00000    
     0.016     0.905    0.00000    
     0.016     0.921    0.00000    
     0.016     0.937    0.00000    
     0.016     0.952    0.00000    
     0.016     0.968    0.00000    
     0.016     0.984    0.00000    
     0.016     1.000    0.00000    
     0.032     0.000   0.995678E-01
     0.032     0.016   0.536755E-01
     0.032     0.032   0.222528E-01
     0.032     0.048   0.706622E-02
     0.032     0.063   0.172639E-02
     0.032     0.079   0.326233E-03
     0.032     0.095   0.477942E-04
     0.032     0.111   0.541469E-05
     0.032     0.127   0.470055E-06
     0.032     0.143   0.307009E-07
     0.032     0.159   0.146062E-08
     0.032     0.175   0.478031E-10
     0.032     0.190   0.962761E-12
     0.032     0.206   0.899898E-14
     0.032     0.222    0.00000    
     0.032     0.238    0.00000    
     0.032     0.254    0.00000    
     0.032     0.270    0.00000    
     0.032     0.286    0.00000    
     0.032     0.302    0.00000    
     0.032     0.317    0.00000    
     0.032     0.333    0.00000    
     0.032     0.349    0.00000    
     0.032     0.365    0.00000    
     0.032     0.381    0.00000    
     0.032     0.397    0.00000    
     0.032     0.413    0.00000    
     0.032     0.429    0.00000    
     0.032     0.444    0.00000    
     0.032     0.460    0.00000    
     0.032     0.476    0.00000    
     0.032     0.492    0.00000    
     0.032     0.508    0.00000    
     0.032     0.524    0.00000    
     0.032     0.540    0.00000    
     0.032     0.556    0.00000    
     0.032     0.571    0.00000    
     0.032     0.587    0.00000    
     0.032     0.603    0.00000    
     0.032     0.619    0.00000    
     0.032     0.635    0.00000    
     0.032     0.651    0.00000    
     0.032     0.667    0.00000    
     0.032     0.683    0.00000    
     0.032     0.698    0.00000    
     0.032     0.714    0.00000    
     0.032     0.730    0.00000    
     0.032     0.746    0.00000    
     0.032     0.762    0.00000    
     0.032     0.778    0.00000    
     0.032     0.794    0.00000    
     0.032     0.810    0.00000    
     0.032     0.825    0.00000    
     0.032     0.841    0.00000    
     0.032     0.857    0.00000    
     0.032     0.873    0.00000    
     0.032     0.889    0.00000    
     0.032     0.905    0.00000    
     0.032     0.921    0.00000    
     0.032     0.937    0.00000    
     0.032     0.952    0.00000    
     0.032     0.968    0.00000    
     0.032     0.984    0.00000    
     0.032     1.000    0.00000    
     0.048     0.000   0.149042    
     0.048     0.016   0.803464E-01
     0.048     0.032   0.333100E-01
     0.048     0.048   0.105774E-01
     0.048     0.063   0.258421E-02
     0.048     0.079   0.488335E-03
     0.048     0.095   0.715427E-04
     0.048     0.111   0.810521E-05
     0.048     0.127   0.703622E-06
     0.048     0.143   0.459559E-07
     0.048     0.159   0.218638E-08
     0.048     0.175   0.715561E-10
     0.048     0.190   0.144115E-11
     0.048     0.206   0.134705E-13
     0.048     0.222    0.00000    
     0.048     0.238    0.00000    
     0.048     0.254    0.00000    
     0.048     0.270    0.00000    
     0.048     0.286    0.00000    
     0.048     0.302    0.00000    
     0.048     0.317    0.00000    
     0.048     0.333    0.00000    
     0.048     0.349    0.00000    
     0.048     0.365    0.00000    
     0.048     0.381    0.00000    
     0.048     0.397    0.00000    
     0.048     0.413    0.00000    
     0.048     0.429    0.00000    
     0.048     0.444    0.00000    
     0.048     0.460    0.00000    
     0.048     0.476    0.00000    
     0.048     0.492    0.00000    
     0.048     0.508    0.00000    
     0.048     0.524    0.00000    
     0.048     0.540    0.00000    
     0.048     0.556    0.00000    
     0.048     0.571    0.00000    
     0.048     0.587    0.00000    
     0.048     0.603    0.00000    
     0.048     0.619    0.00000    
     0.048     0.635    0.00000    
     0.048     0.651    0.00000    
     0.048     0.667    0.00000    
     0.048     0.683    0.00000    
     0.048     0.698    0.00000    
     0.048     0.714    0.00000    
     0.048     0.730    0.00000    
     0.048     0.746    0.00000    
     0.048     0.762    0.00000    
     0.048     0.778    0.00000    
     0.048     0.794    0.00000    
     0.048     0.810    0.00000    
     0.048     0.825    0.00000    
     0.048     0.841    0.00000    
     0.048     0.857    0.00000    
     0.048     0.873    0.00000    
     0.048     0.889    0.00000    
     0.048     0.905    0.00000    
     0.048     0.921    0.00000    
     0.048     0.937    0.00000    
     0.048     0.952    0.00000    
     0.048     0.968    0.00000    
     0.048     0.984    0.00000    
     0.048     1.000    0.00000    
     0.063     0.000   0.198146    
     0.063     0.016   0.106818    
     0.063     0.032   0.442843E-01
     0.063     0.048   0.140622E-01
     0.063     0.063   0.343562E-02
     0.063     0.079   0.649223E-03
     0.063     0.095   0.951133E-04
     0.063     0.111   0.107756E-04
     0.063     0.127   0.935439E-06
     0.063     0.143   0.610966E-07
     0.063     0.159   0.290671E-08
     0.063     0.175   0.951311E-10
     0.063     0.190   0.191595E-11
     0.063     0.206   0.179085E-13
     0.063     0.222    0.00000    
     0.063     0.238    0.00000    
     0.063     0.254    0.00000    
     0.063     0.270    0.00000    
     0.063     0.286    0.00000    
     0.063     0.302    0.00000    
     0.063     0.317    0.00000    
     0.063     0.333    0.00000    
     0.063     0.349    0.00000    
     0.063     0.365    0.00000    
     0.063     0.381    0.00000    
     0.063     0.397    0.00000    
     0.063     0.413    0.00000    
     0.063     0.429    0.00000    
     0.063     0.444    0.00000    
     0.063     0.460    0.00000    
     0.063     0.476    0.00000    
     0.063     0.492    0.00000    
     0.063     0.508    0.00000    
     0.063     0.524    0.00000    
     0.063     0.540    0.00000    
     0.063     0.556    0.00000    
     0.063     0.571    0.00000    
     0.063     0.587    0.00000    
     0.063     0.603    0.00000    
     0.063     0.619    0.00000    
     0.063     0.635    0.00000    
     0.063     0.651    0.00000    
     0.063     0.667    0.00000    
     0.063     0.683    0.00000    
     0.063     0.698    0.00000    
     0.063     0.714    0.00000    
     0.063     0.730    0.00000    
     0.063     0.746    0.00000    
     0.063     0.762    0.00000    
     0.063     0.778    0.00000    
     0.063     0.794    0.00000    
     0.063     0.810    0.00000    
     0.063     0.825    0.00000    
     0.063     0.841    0.00000    
     0.063     0.857    0.00000    
     0.063     0.873    0.00000    
     0.063     0.889    0.00000    
     0.063     0.905    0.00000    
     0.063     0.921    0.00000    
     0.063     0.937    0.00000    
     0.063     0.952    0.00000    
     0.063     0.968    0.00000    
     0.063     0.984    0.00000    
     0.063     1.000    0.00000    
     0.079     0.000   0.246757    
     0.079     0.016   0.133023    
     0.079     0.032   0.551486E-01
     0.079     0.048   0.175121E-01
     0.079     0.063   0.427848E-02
     0.079     0.079   0.808498E-03
     0.079     0.095   0.118448E-03
     0.079     0.111   0.134191E-04
     0.079     0.127   0.116493E-05
     0.079     0.143   0.760855E-07
     0.079     0.159   0.361982E-08
     0.079     0.175   0.118470E-09
     0.079     0.190   0.238599E-11
     0.079     0.206   0.223020E-13
     0.079     0.222    0.00000    
     0.079     0.238    0.00000    
     0.079     0.254    0.00000    
     0.079     0.270    0.00000    
     0.079     0.286    0.00000    
     0.079     0.302    0.00000    
     0.079     0.317    0.00000    
     0.079     0.333    0.00000    
     0.079     0.349    0.00000    
     0.079     0.365    0.00000    
     0.079     0.381    0.00000    
     0.079     0.397    0.00000    
     0.079     0.413    0.00000    
     0.079     0.429    0.00000    
     0.079     0.444    0.00000    
     0.079     0.460    0.00000    
     0.079     0.476    0.00000    
     0.079     0.492    0.00000    
     0.079     0.508    0.00000    
     0.079     0.524    0.00000    
     0.079     0.540    0.00000    
     0.079     0.556    0.00000    
     0.079     0.571    0.00000    
     0.079     0.587    0.00000    
     0.079     0.603    0.00000    
     0.079     0.619    0.00000    
     0.079     0.635    0.00000    
     0.079     0.651    0.00000    
     0.079     0.667    0.00000    
     0.079     0.683    0.00000    
     0.079     0.698    0.00000    
     0.079     0.714    0.00000    
     0.079     0.730    0.00000    
     0.079     0.746    0.00000    
     0.079     0.762    0.00000    
     0.079     0.778    0.00000    
     0.079     0.794    0.00000    
     0.079     0.810    0.00000    
     0.079     0.825    0.00000    
     0.079     0.841    0.00000    
     0.079     0.857    0.00000    
     0.079     0.873    0.00000    
     0.079     0.889    0.00000    
     0.079     0.905    0.00000    
     0.079     0.921    0.00000    
     0.079     0.937    0.00000    
     0.079     0.952    0.00000    
     0.079     0.968    0.00000    
     0.079     0.984    0.00000    
     0.079     1.000    0.00000    
     0.095     0.000   0.294755    
     0.095     0.016   0.158898    
     0.095     0.032   0.658758E-01
     0.095     0.048   0.209185E-01
     0.095     0.063   0.511070E-02
     0.095     0.079   0.965762E-03
     0.095     0.095   0.141487E-03
     0.095     0.111   0.160294E-04
     0.095     0.127   0.139153E-05
     0.095     0.143   0.908852E-07
     0.095     0.159   0.432392E-08
     0.095     0.175   0.141514E-09
     0.095     0.190   0.285010E-11
     0.095     0.206   0.266401E-13
     0.095     0.222    0.00000    
     0.095     0.238    0.00000    
     0.095     0.254    0.00000    
     0.095     0.270    0.00000    
     0.095     0.286    0.00000    
     0.095     0.302    0.00000    
     0.095     0.317    0.00000    
     0.095     0.333    0.00000    
     0.095     0.349    0.00000    
     0.095     0.365    0.00000    
     0.095     0.381    0.00000    
     0.095     0.397    0.00000    
     0.095     0.413    0.00000    
     0.095     0.429    0.00000    
     0.095     0.444    0.00000    
     0.095     0.460    0.00000    
     0.095     0.476    0.00000    
     0.095     0.492    0.00000    
     0.095     0.508    0.00000    
     0.095     0.524    0.00000    
     0.095     0.540    0.00000    
     0.095     0.556    0.00000    
     0.095     0.571    0.00000    
     0.095     0.587    0.00000    
     0.095     0.603    0.00000    
     0.095     0.619    0.00000    
     0.095     0.635    0.00000    
     0.095     0.651    0.00000    
     0.095     0.667    0.00000    
     0.095     0.683    0.00000    
     0.095     0.698    0.00000    
     0.095     0.714    0.00000    
     0.095     0.730    0.00000    
     0.095     0.746    0.00000    
     0.095     0.762    0.00000    
     0.095     0.778    0.00000    
     0.095     0.794    0.00000    
     0.095     0.810    0.00000    
     0.095     0.825    0.00000    
     0.095     0.841    0.00000    
     0.095     0.857    0.00000    
     0.095     0.873    0.00000    
     0.095     0.889    0.00000    
     0.095     0.905    0.00000    
     0.095     0.921    0.00000    
     0.095     0.937    0.00000    
     0.095     0.952    0.00000    
     0.095     0.968    0.00000    
     0.095     0.984    0.00000    
     0.095     1.000    0.00000    
     0.111     0.000   0.342020    
     0.111     0.016   0.184378    
     0.111     0.032   0.764392E-01
     0.111     0.048   0.242728E-01
     0.111     0.063   0.593022E-02
     0.111     0.079   0.112062E-02
     0.111     0.095   0.164175E-03
     0.111     0.111   0.185997E-04
     0.111     0.127   0.161466E-05
     0.111     0.143   0.105459E-06
     0.111     0.159   0.501728E-08
     0.111     0.175   0.164206E-09
     0.111     0.190   0.330713E-11
     0.111     0.206   0.309119E-13
     0.111     0.222    0.00000    
     0.111     0.238    0.00000    
     0.111     0.254    0.00000    
     0.111     0.270    0.00000    
     0.111     0.286    0.00000    
     0.111     0.302    0.00000    
     0.111     0.317    0.00000    
     0.111     0.333    0.00000    
     0.111     0.349    0.00000    
     0.111     0.365    0.00000    
     0.111     0.381    0.00000    
     0.111     0.397    0.00000    
     0.111     0.413    0.00000    
     0.111     0.429    0.00000    
     0.111     0.444    0.00000    
     0.111     0.460    0.00000    
     0.111     0.476    0.00000    
     0.111     0.492    0.00000    
     0.111     0.508    0.00000    
     0.111     0.524    0.00000    
     0.111     0.540    0.00000    
     0.111     0.556    0.00000    
     0.111     0.571    0.00000    
     0.111     0.587    0.00000    
     0.111     0.603    0.00000    
     0.111     0.619    0.00000    
     0.111     0.635    0.00000    
     0.111     0.651    0.00000    
     0.111     0.667    0.00000    
     0.111     0.683    0.00000    
     0.111     0.698    0.00000    
     0.111     0.714    0.00000    
     0.111     0.730    0.00000    
     0.111     0.746    0.00000    
     0.111     0.762    0.00000    
     0.111     0.778    0.00000    
     0.111     0.794    0.00000    
     0.111     0.810    0.00000    
     0.111     0.825    0.00000    
     0.111     0.841    0.00000    
     0.111     0.857    0.00000    
     0.111     0.873    0.00000    
     0.111     0.889    0.00000    
     0.111     0.905    0.00000    
     0.111     0.921    0.00000    
     0.111     0.937    0.00000    
     0.111     0.952    0.00000    
     0.111     0.968    0.00000    
     0.111     0.984    0.00000    
     0.111     1.000    0.00000    
     0.127     0.000   0.388435    
     0.127     0.016   0.209399    
     0.127     0.032   0.868126E-01
     0.127     0.048   0.275668E-01
     0.127     0.063   0.673500E-02
     0.127     0.079   0.127270E-02
     0.127     0.095   0.186455E-03
     0.127     0.111   0.211238E-04
     0.127     0.127   0.183378E-05
     0.127     0.143   0.119770E-06
     0.127     0.159   0.569816E-08
     0.127     0.175   0.186490E-09
     0.127     0.190   0.375593E-11
     0.127     0.206   0.351069E-13
     0.127     0.222    0.00000    
     0.127     0.238    0.00000    
     0.127     0.254    0.00000    
     0.127     0.270    0.00000    
     0.127     0.286    0.00000    
     0.127     0.302    0.00000    
     0.127     0.317    0.00000    
     0.127     0.333    0.00000    
     0.127     0.349    0.00000    
     0.127     0.365    0.00000    
     0.127     0.381    0.00000    
     0.127     0.397    0.00000    
     0.127     0.413    0.00000    
     0.127     0.429    0.00000    
     0.127     0.444    0.00000    
     0.127     0.460    0.00000    
     0.127     0.476    0.00000    
     0.127     0.492    0.00000    
     0.127     0.508    0.00000    
     0.127     0.524    0.00000    
     0.127     0.540    0.00000    
     0.127     0.556    0.00000    
     0.127     0.571    0.00000    
     0.127     0.587    0.00000    
     0.127     0.603    0.00000    
     0.127     0.619    0.00000    
     0.127     0.635    0.00000    
     0.127     0.651    0.00000    
     0.127     0.667    0.00000    
     0.127     0.683    0.00000    
     0.127     0.698    0.00000    
     0.127     0.714    0.00000    
     0.127     0.730    0.00000    
     0.127     0.746    0.00000    
     0.127     0.762    0.00000    
     0.127     0.778    0.00000    
     0.127     0.794    0.00000    
     0.127     0.810    0.00000    
     0.127     0.825    0.00000    
     0.127     0.841    0.00000    
     0.127     0.857    0.00000    
     0.127     0.873    0.00000    
     0.127     0.889    0.00000    
     0.127     0.905    0.00000    
     0.127     0.921    0.00000    
     0.127     0.937    0.00000    
     0.127     0.952    0.00000    
     0.127     0.968    0.00000    
     0.127     0.984    0.00000    
     0.127     1.000    0.00000    
     0.143     0.000   0.433884    
     0.143     0.016   0.233900    
     0.143     0.032   0.969701E-01
     0.143     0.048   0.307923E-01
     0.143     0.063   0.752303E-02
     0.143     0.079   0.142161E-02
     0.143     0.095   0.208271E-03
     0.143     0.111   0.235954E-04
     0.143     0.127   0.204834E-05
     0.143     0.143   0.133784E-06
     0.143     0.159   0.636488E-08
     0.143     0.175   0.208310E-09
     0.143     0.190   0.419539E-11
     0.143     0.206   0.392146E-13
     0.143     0.222    0.00000    
     0.143     0.238    0.00000    
     0.143     0.254    0.00000    
     0.143     0.270    0.00000    
     0.143     0.286    0.00000    
     0.143     0.302    0.00000    
     0.143     0.317    0.00000    
     0.143     0.333    0.00000    
     0.143     0.349    0.00000    
     0.143     0.365    0.00000    
     0.143     0.381    0.00000    
     0.143     0.397    0.00000    
     0.143     0.413    0.00000    
     0.143     0.429    0.00000    
     0.143     0.444    0.00000    
     0.143     0.460    0.00000    
     0.143     0.476    0.00000    
     0.143     0.492    0.00000    
     0.143     0.508    0.00000    
     0.143     0.524    0.00000    
     0.143     0.540    0.00000    
     0.143     0.556    0.00000    
     0.143     0.571    0.00000    
     0.143     0.587    0.00000    
     0.143     0.603    0.00000    
     0.143     0.619    0.00000    
     0.143     0.635    0.00000    
     0.143     0.651    0.00000    
     0.143     0.667    0.00000    
     0.143     0.683    0.00000    
     0.143     0.698    0.00000    
     0.143     0.714    0.00000    
     0.143     0.730    0.00000    
     0.143     0.746    0.00000    
     0.143     0.762    0.00000    
     0.143     0.778    0.00000    
     0.143     0.794    0.00000    
     0.143     0.810    0.00000    
     0.143     0.825    0.00000    
     0.143     0.841    0.00000    
     0.143     0.857    0.00000    
     0.143     0.873    0.00000    
     0.143     0.889    0.00000    
     0.143     0.905    0.00000    
     0.143     0.921    0.00000    
     0.143     0.937    0.00000    
     0.143     0.952    0.00000    
     0.143     0.968    0.00000    
     0.143     0.984    0.00000    
     0.143     1.000    0.00000    
     0.159     0.000   0.478254    
     0.159     0.016   0.257820    
     0.159     0.032   0.106887    
     0.159     0.048   0.339412E-01
     0.159     0.063   0.829235E-02
     0.159     0.079   0.156699E-02
     0.159     0.095   0.229570E-03
     0.159     0.111   0.260084E-04
     0.159     0.127   0.225781E-05
     0.159     0.143   0.147465E-06
     0.159     0.159   0.701577E-08
     0.159     0.175   0.229612E-09
     0.159     0.190   0.462443E-11
     0.159     0.206   0.432248E-13
     0.159     0.222    0.00000    
     0.159     0.238    0.00000    
     0.159     0.254    0.00000    
     0.159     0.270    0.00000    
     0.159     0.286    0.00000    
     0.159     0.302    0.00000    
     0.159     0.317    0.00000    
     0.159     0.333    0.00000    
     0.159     0.349    0.00000    
     0.159     0.365    0.00000    
     0.159     0.381    0.00000    
     0.159     0.397    0.00000    
     0.159     0.413    0.00000    
     0.159     0.429    0.00000    
     0.159     0.444    0.00000    
     0.159     0.460    0.00000    
     0.159     0.476    0.00000    
     0.159     0.492    0.00000    
     0.159     0.508    0.00000    
     0.159     0.524    0.00000    
     0.159     0.540    0.00000    
     0.159     0.556    0.00000    
     0.159     0.571    0.00000    
     0.159     0.587    0.00000    
     0.159     0.603    0.00000    
     0.159     0.619    0.00000    
     0.159     0.635    0.00000    
     0.159     0.651    0.00000    
     0.159     0.667    0.00000    
     0.159     0.683    0.00000    
     0.159     0.698    0.00000    
     0.159     0.714    0.00000    
     0.159     0.730    0.00000    
     0.159     0.746    0.00000    
     0.159     0.762    0.00000    
     0.159     0.778    0.00000    
     0.159     0.794    0.00000    
     0.159     0.810    0.00000    
     0.159     0.825    0.00000    
     0.159     0.841    0.00000    
     0.159     0.857    0.00000    
     0.159     0.873    0.00000    
     0.159     0.889    0.00000    
     0.159     0.905    0.00000    
     0.159     0.921    0.00000    
     0.159     0.937    0.00000    
     0.159     0.952    0.00000    
     0.159     0.968    0.00000    
     0.159     0.984    0.00000    
     0.159     1.000    0.00000    
     0.175     0.000   0.521435    
     0.175     0.016   0.281098    
     0.175     0.032   0.116537    
     0.175     0.048   0.370057E-01
     0.175     0.063   0.904106E-02
     0.175     0.079   0.170848E-02
     0.175     0.095   0.250297E-03
     0.175     0.111   0.283567E-04
     0.175     0.127   0.246167E-05
     0.175     0.143   0.160780E-06
     0.175     0.159   0.764922E-08
     0.175     0.175   0.250344E-09
     0.175     0.190   0.504196E-11
     0.175     0.206   0.471275E-13
     0.175     0.222    0.00000    
     0.175     0.238    0.00000    
     0.175     0.254    0.00000    
     0.175     0.270    0.00000    
     0.175     0.286    0.00000    
     0.175     0.302    0.00000    
     0.175     0.317    0.00000    
     0.175     0.333    0.00000    
     0.175     0.349    0.00000    
     0.175     0.365    0.00000    
     0.175     0.381    0.00000    
     0.175     0.397    0.00000    
     0.175     0.413    0.00000    
     0.175     0.429    0.00000    
     0.175     0.444    0.00000    
     0.175     0.460    0.00000    
     0.175     0.476    0.00000    
     0.175     0.492    0.00000    
     0.175     0.508    0.00000    
     0.175     0.524    0.00000    
     0.175     0.540    0.00000    
     0.175     0.556    0.00000    
     0.175     0.571    0.00000    
     0.175     0.587    0.00000    
     0.175     0.603    0.00000    
     0.175     0.619    0.00000    
     0.175     0.635    0.00000    
     0.175     0.651    0.00000    
     0.175     0.667    0.00000    
     0.175     0.683    0.00000    
     0.175     0.698    0.00000    
     0.175     0.714    0.00000    
     0.175     0.730    0.00000    
     0.175     0.746    0.00000    
     0.175     0.762    0.00000    
     0.175     0.778    0.00000    
     0.175     0.794    0.00000    
     0.175     0.810    0.00000    
     0.175     0.825    0.00000    
     0.175     0.841    0.00000    
     0.175     0.857    0.00000    
     0.175     0.873    0.00000    
     0.175     0.889    0.00000    
     0.175     0.905    0.00000    
     0.175     0.921    0.00000    
     0.175     0.937    0.00000    
     0.175     0.952    0.00000    
     0.175     0.968    0.00000    
     0.175     0.984    0.00000    
     0.175     1.000    0.00000    
     0.190     0.000   0.563320    
     0.190     0.016   0.303677    
     0.190     0.032   0.125898    
     0.190     0.048   0.399782E-01
     0.190     0.063   0.976730E-02
     0.190     0.079   0.184571E-02
     0.190     0.095   0.270403E-03
     0.190     0.111   0.306344E-04
     0.190     0.127   0.265941E-05
     0.190     0.143   0.173695E-06
     0.190     0.159   0.826365E-08
     0.190     0.175   0.270453E-09
     0.190     0.190   0.544696E-11
     0.190     0.206   0.509131E-13
     0.190     0.222    0.00000    
     0.190     0.238    0.00000    
     0.190     0.254    0.00000    
     0.190     0.270    0.00000    
     0.190     0.286    0.00000    
     0.190     0.302    0.00000    
     0.190     0.317    0.00000    
     0.190     0.333    0.00000    
     0.190     0.349    0.00000    
     0.190     0.365    0.00000    
     0.190     0.381    0.00000    
     0.190     0.397    0.00000    
     0.190     0.413    0.00000    
     0.190     0.429    0.00000    
     0.190     0.444    0.00000    
     0.190     0.460    0.00000    
     0.190     0.476    0.00000    
     0.190     0.492    0.00000    
     0.190     0.508    0.00000    
     0.190     0.524    0.00000    
     0.190     0.540    0.00000    
     0.190     0.556    0.00000    
     0.190     0.571    0.00000    
     0.190     0.587    0.00000    
     0.190     0.603    0.00000    
     0.190     0.619    0.00000    
     0.190     0.635    0.00000    
     0.190     0.651    0.00000    
     0.190     0.667    0.00000    
     0.190     0.683    0.00000    
     0.190     0.698    0.00000    
     0.190     0.714    0.00000    
     0.190     0.730    0.00000    
     0.190     0.746    0.00000    
     0.190     0.762    0.00000    
     0.190     0.778    0.00000    
     0.190     0.794    0.00000    
     0.190     0.810    0.00000    
     0.190     0.825    0.00000    
     0.190     0.841    0.00000    
     0.190     0.857    0.00000    
     0.190     0.873    0.00000    
     0.190     0.889    0.00000    
     0.190     0.905    0.00000    
     0.190     0.921    0.00000    
     0.190     0.937    0.00000    
     0.190     0.952    0.00000    
     0.190     0.968    0.00000    
     0.190     0.984    0.00000    