Title="Temperature Data"
Variables="X","Y","T"
 
Zone I=   100, J=   100, F=POINT
     0.000     0.000   0.692304-309
     0.000     0.010   0.692304-309
     0.000     0.020    0.00000    
     0.000     0.030    0.00000    
     0.000     0.040   0.177904-317
     0.000     0.051   0.466992-309
     0.000     0.061   0.404739-319
     0.000     0.071   0.790505-322
     0.000     0.081    0.00000    
     0.000     0.091   0.360668-321
     0.000     0.101   0.512657-304
     0.000     0.111    0.00000    
     0.000     0.121    0.00000    
     0.000     0.131   0.405578-319
     0.000     0.141   0.692304-309
     0.000     0.152   0.692304-309
     0.000     0.162    0.00000    
     0.000     0.172    0.00000    
     0.000     0.182   0.601347-153
     0.000     0.192   0.603687-153
     0.000     0.202   0.860243E-66
     0.000     0.212   0.139737E-75
     0.000     0.222   0.655491-259
     0.000     0.232   0.130371E-75
     0.000     0.242   0.696312E-76
     0.000     0.253   0.601347-153
     0.000     0.263   0.120737-152
     0.000     0.273   0.601347-153
     0.000     0.283   0.603687-153
     0.000     0.293   0.934427E-66
     0.000     0.303   0.139737E-75
     0.000     0.313   0.655491-259
     0.000     0.323   0.130371E-75
     0.000     0.333   0.696312E-76
     0.000     0.343   0.601347-153
     0.000     0.354   0.120737-152
     0.000     0.364   0.601347-153
     0.000     0.374   0.603687-153
     0.000     0.384   0.637836E-66
     0.000     0.394   0.139737E-75
     0.000     0.404   0.655491-259
     0.000     0.414   0.130371E-75
     0.000     0.424   0.696312E-76
     0.000     0.434   0.601347-153
     0.000     0.444   0.120737-152
     0.000     0.455   0.601347-153
     0.000     0.465   0.603687-153
     0.000     0.475   0.712020E-66
     0.000     0.485   0.139737E-75
     0.000     0.495   0.655491-259
     0.000     0.505   0.130371E-75
     0.000     0.515   0.696312E-76
     0.000     0.525   0.601347-153
     0.000     0.535   0.120737-152
     0.000     0.545   0.601347-153
     0.000     0.556   0.603687-153
     0.000     0.566   0.515247E-61
     0.000     0.576   0.139737E-75
     0.000     0.586   0.655491-259
     0.000     0.596   0.130371E-75
     0.000     0.606   0.696312E-76
     0.000     0.616   0.601347-153
     0.000     0.626   0.120737-152
     0.000     0.636   0.601347-153
     0.000     0.646   0.603687-153
     0.000     0.657   0.563864E-61
     0.000     0.667   0.139737E-75
     0.000     0.677   0.655491-259
     0.000     0.687   0.130371E-75
     0.000     0.697   0.696312E-76
     0.000     0.707   0.601347-153
     0.000     0.717   0.120737-152
     0.000     0.727   0.601347-153
     0.000     0.737   0.603687-153
     0.000     0.747   0.612481E-61
     0.000     0.758   0.139737E-75
     0.000     0.768   0.655491-259
     0.000     0.778   0.130371E-75
     0.000     0.788   0.696312E-76
     0.000     0.798   0.601347-153
     0.000     0.808   0.120737-152
     0.000     0.818   0.601347-153
     0.000     0.828   0.603687-153
     0.000     0.838   0.418107E-61
     0.000     0.848   0.139737E-75
     0.000     0.859   0.655491-259
     0.000     0.869   0.130371E-75
     0.000     0.879   0.696312E-76
     0.000     0.889   0.601347-153
     0.000     0.899   0.120737-152
     0.000     0.909   0.601347-153
     0.000     0.919   0.603687-153
     0.000     0.929   0.466724E-61
     0.000     0.939   0.139737E-75
     0.000     0.949   0.655491-259
     0.000     0.960   0.130371E-75
     0.000     0.970   0.696312E-76
     0.000     0.980   0.601347-153
     0.000     0.990   0.120737-152
     0.000     1.000   0.601347-153
     0.010     0.000   0.603687-153
     0.010     0.010   0.200143E-05
     0.010     0.020   0.180563E-06
     0.010     0.030   0.814364E-08
     0.010     0.040   0.244722E-09
     0.010     0.051   0.551171E-11
     0.010     0.061   0.992339E-13
     0.010     0.071   0.148768E-14
     0.010     0.081   0.191014E-16
     0.010     0.091   0.214423E-18
     0.010     0.101   0.213782E-20
     0.010     0.111   0.191669E-22
     0.010     0.121   0.156092E-24
     0.010     0.131   0.116428E-26
     0.010     0.141   0.800963E-29
     0.010     0.152   0.511231E-31
     0.010     0.162   0.304295E-33
     0.010     0.172   0.169660E-35
     0.010     0.182   0.889544E-38
     0.010     0.192   0.440116E-40
     0.010     0.202   0.206120E-42
     0.010     0.212   0.916282E-45
     0.010     0.222   0.387598E-47
     0.010     0.232   0.156374E-49
     0.010     0.242   0.602937E-52
     0.010     0.253   0.222602E-54
     0.010     0.263   0.788294E-57
     0.010     0.273   0.268192E-59
     0.010     0.283   0.877894E-62
     0.010     0.293   0.276938E-64
     0.010     0.303   0.842619E-67
     0.010     0.313   0.287897E-69
     0.010     0.323   0.163642E-68
     0.010     0.333   0.411376E-67
     0.010     0.343   0.163572E-68
     0.010     0.354   0.403070E-70
     0.010     0.364   0.891687E-72
     0.010     0.374   0.271022E-70
     0.010     0.384   0.548309E-68
     0.010     0.394   0.539134E-67
     0.010     0.404   0.291670E-65
     0.010     0.414   0.118367E-63
     0.010     0.424   0.297688E-62
     0.010     0.434   0.118367E-63
     0.010     0.444   0.291670E-65
     0.010     0.455   0.538964E-67
     0.010     0.465   0.829354E-69
     0.010     0.475   0.611316E-68
     0.010     0.485   0.590010E-67
     0.010     0.495   0.319191E-65
     0.010     0.505   0.129536E-63
     0.010     0.515   0.325778E-62
     0.010     0.525   0.129536E-63
     0.010     0.535   0.319192E-65
     0.010     0.545   0.623547E-67
     0.010     0.556   0.138980E-65
     0.010     0.566   0.378358E-63
     0.010     0.576   0.145298E-65
     0.010     0.586   0.347050E-65
     0.010     0.596   0.140705E-63
     0.010     0.606   0.353867E-62
     0.010     0.616   0.140705E-63
     0.010     0.626   0.346713E-65
     0.010     0.636   0.677584E-67
     0.010     0.646   0.152092E-65
     0.010     0.657   0.414058E-63
     0.010     0.667   0.156370E-65
     0.010     0.677   0.237051E-65
     0.010     0.687   0.960513E-64
     0.010     0.697   0.241565E-62
     0.010     0.707   0.960513E-64
     0.010     0.717   0.236682E-65
     0.010     0.727   0.477446E-67
     0.010     0.737   0.165168E-65
     0.010     0.747   0.449759E-63
     0.010     0.758   0.169984E-65
     0.010     0.768   0.264604E-65
     0.010     0.778   0.107220E-63
     0.010     0.788   0.269654E-62
     0.010     0.798   0.107220E-63
     0.010     0.808   0.264210E-65
     0.010     0.818   0.584489E-67
     0.010     0.828   0.177654E-65
     0.010     0.838   0.359419E-63
     0.010     0.848   0.353392E-62
     0.010     0.859   0.191184E-60
     0.010     0.869   0.775873E-59
     0.010     0.879   0.195129E-57
     0.010     0.889   0.775873E-59
     0.010     0.899   0.191196E-60
     0.010     0.909   0.219962E-61
     0.010     0.919   0.244313E-58
     0.010     0.929   0.281624E-55
     0.010     0.939   0.277441E-52
     0.010     0.949   0.227529E-49
     0.010     0.960   0.149498E-46
     0.010     0.970   0.740400E-44
     0.010     0.980   0.246941E-41
     0.010     0.990   0.419327E-39
     0.010     1.000   0.603687-153
     0.020     0.000   0.158794E-46
     0.020     0.010   0.400085E-05
     0.020     0.020   0.360944E-06
     0.020     0.030   0.162791E-07
     0.020     0.040   0.489198E-09
     0.020     0.051   0.110179E-10
     0.020     0.061   0.198368E-12
     0.020     0.071   0.297387E-14
     0.020     0.081   0.381835E-16
     0.020     0.091   0.428631E-18
     0.020     0.101   0.427348E-20
     0.020     0.111   0.383145E-22
     0.020     0.121   0.312027E-24
     0.020     0.131   0.232740E-26
     0.020     0.141   0.160112E-28
     0.020     0.152   0.102195E-30
     0.020     0.162   0.608283E-33
     0.020     0.172   0.339148E-35
     0.020     0.182   0.177819E-37
     0.020     0.192   0.879790E-40
     0.020     0.202   0.412032E-42
     0.020     0.212   0.183164E-44
     0.020     0.222   0.774806E-47
     0.020     0.232   0.312590E-49
     0.020     0.242   0.120527E-51
     0.020     0.253   0.444980E-54
     0.020     0.263   0.157579E-56
     0.020     0.273   0.536113E-59
     0.020     0.283   0.175490E-61
     0.020     0.293   0.553460E-64
     0.020     0.303   0.168387E-66
     0.020     0.313   0.497044E-69
     0.020     0.323   0.820177E-70
     0.020     0.333   0.163721E-68
     0.020     0.343   0.806118E-70
     0.020     0.354   0.223376E-71
     0.020     0.364   0.512269E-73
     0.020     0.374   0.714601E-72
     0.020     0.384   0.666538E-70
     0.020     0.394   0.319593E-68
     0.020     0.404   0.161639E-66
     0.020     0.414   0.583340E-65
     0.020     0.424   0.118475E-63
     0.020     0.434   0.583340E-65
     0.020     0.444   0.161639E-66
     0.020     0.455   0.319585E-68
     0.020     0.465   0.502431E-70
     0.020     0.475   0.739509E-70
     0.020     0.485   0.349750E-68
     0.020     0.495   0.176891E-66
     0.020     0.505   0.638383E-65
     0.020     0.515   0.129654E-63
     0.020     0.525   0.638383E-65
     0.020     0.535   0.176891E-66
     0.020     0.545   0.351566E-68
     0.020     0.556   0.680053E-68
     0.020     0.566   0.138898E-65
     0.020     0.576   0.105446E-67
     0.020     0.586   0.192161E-66
     0.020     0.596   0.693425E-65
     0.020     0.606   0.140833E-63
     0.020     0.616   0.693425E-65
     0.020     0.626   0.192143E-66
     0.020     0.636   0.381893E-68
     0.020     0.646   0.744146E-68
     0.020     0.657   0.152002E-65
     0.020     0.667   0.997549E-68
     0.020     0.677   0.131185E-66
     0.020     0.687   0.473363E-65
     0.020     0.697   0.961387E-64
     0.020     0.707   0.473363E-65
     0.020     0.717   0.131165E-66
     0.020     0.727   0.261504E-68
     0.020     0.737   0.805936E-68
     0.020     0.747   0.165108E-65
     0.020     0.758   0.109135E-67
     0.020     0.768   0.146439E-66
     0.020     0.778   0.528405E-65
     0.020     0.788   0.107318E-63
     0.020     0.798   0.528405E-65
     0.020     0.808   0.146421E-66
     0.020     0.818   0.335786E-68
     0.020     0.828   0.468410E-67
     0.020     0.838   0.436908E-65
     0.020     0.848   0.209487E-63
     0.020     0.859   0.105951E-61
     0.020     0.869   0.382368E-60
     0.020     0.879   0.776580E-59
     0.020     0.889   0.382373E-60
     0.020     0.899   0.187842E-61
     0.020     0.909   0.121910E-58
     0.020     0.919   0.160603E-55
     0.020     0.929   0.184584E-52
     0.020     0.939   0.181645E-49
     0.020     0.949   0.149176E-46
     0.020     0.960   0.984923E-44
     0.020     0.970   0.492599E-41
     0.020     0.980   0.167188E-38
     0.020     0.990   0.292642E-36
     0.020     1.000   0.741018E-37
     0.030     0.000   0.139737E-75
     0.030     0.010   0.599624E-05
     0.030     0.020   0.540961E-06
     0.030     0.030   0.243981E-07
     0.030     0.040   0.733181E-09
     0.030     0.051   0.165129E-10
     0.030     0.061   0.297302E-12
     0.030     0.071   0.445706E-14
     0.030     0.081   0.572271E-16
     0.030     0.091   0.642407E-18
     0.030     0.101   0.640484E-20
     0.030     0.111   0.574236E-22
     0.030     0.121   0.467648E-24
     0.030     0.131   0.348816E-26
     0.030     0.141   0.239966E-28
     0.030     0.152   0.153163E-30
     0.030     0.162   0.911659E-33
     0.030     0.172   0.508295E-35
     0.030     0.182   0.266505E-37
     0.030     0.192   0.131858E-39
     0.030     0.202   0.617530E-42
     0.030     0.212   0.274516E-44
     0.030     0.222   0.116123E-46
     0.030     0.232   0.468491E-49
     0.030     0.242   0.180638E-51
     0.030     0.253   0.666910E-54
     0.030     0.263   0.236171E-56
     0.030     0.273   0.803495E-59
     0.030     0.283   0.263015E-61
     0.030     0.293   0.829493E-64
     0.030     0.303   0.252369E-66
     0.030     0.313   0.741658E-69
     0.030     0.323   0.434147E-71
     0.030     0.333   0.403669E-70
     0.030     0.343   0.223439E-71
     0.030     0.354   0.662473E-73
     0.030     0.364   0.159333E-74
     0.030     0.374   0.207538E-73
     0.030     0.384   0.161744E-71
     0.030     0.394   0.989065E-70
     0.030     0.404   0.479377E-68
     0.030     0.414   0.161689E-66
     0.030     0.424   0.292070E-65
     0.030     0.434   0.161689E-66
     0.030     0.444   0.479377E-68
     0.030     0.455   0.989066E-70
     0.030     0.465   0.159838E-71
     0.030     0.475   0.179148E-71
     0.030     0.485   0.108239E-69
     0.030     0.495   0.524610E-68
     0.030     0.505   0.176945E-66
     0.030     0.515   0.319628E-65
     0.030     0.525   0.176945E-66
     0.030     0.535   0.524610E-68
     0.030     0.545   0.108291E-69
     0.030     0.556   0.200059E-70
     0.030     0.566   0.337476E-68
     0.030     0.576   0.135829E-69
     0.030     0.586   0.569848E-68
     0.030     0.596   0.192202E-66
     0.030     0.606   0.347187E-65
     0.030     0.616   0.192202E-66
     0.030     0.626   0.569842E-68
     0.030     0.636   0.117629E-69
     0.030     0.646   0.218695E-70
     0.030     0.657   0.369243E-68
     0.030     0.667   0.100240E-69
     0.030     0.677   0.389005E-68
     0.030     0.687   0.131205E-66
     0.030     0.697   0.237006E-65
     0.030     0.707   0.131205E-66
     0.030     0.717   0.389000E-68
     0.030     0.727   0.803217E-70
     0.030     0.737   0.229997E-70
     0.030     0.747   0.401082E-68
     0.030     0.758   0.111295E-69
     0.030     0.768   0.434239E-68
     0.030     0.778   0.146462E-66
     0.030     0.788   0.264564E-65
     0.030     0.798   0.146462E-66
     0.030     0.808   0.434247E-68
     0.030     0.818   0.104441E-69
     0.030     0.828   0.136037E-68
     0.030     0.838   0.106020E-66
     0.030     0.848   0.648313E-65
     0.030     0.859   0.314222E-63
     0.030     0.869   0.105984E-61
     0.030     0.879   0.191447E-60
     0.030     0.889   0.130546E-61
     0.030     0.899   0.406307E-59
     0.030     0.909   0.602138E-56
     0.030     0.919   0.790913E-53
     0.030     0.929   0.908029E-50
     0.030     0.939   0.894838E-47
     0.030     0.949   0.738471E-44
     0.030     0.960   0.492402E-41
     0.030     0.970   0.250626E-38
     0.030     0.980   0.876777E-36
     0.030     0.990   0.161957E-33
     0.030     1.000   0.139737E-75
     0.040     0.000   0.655491-259
     0.040     0.010   0.798560E-05
     0.040     0.020   0.720434E-06
     0.040     0.030   0.324926E-07
     0.040     0.040   0.976426E-09
     0.040     0.051   0.219914E-10
     0.040     0.061   0.395937E-12
     0.040     0.071   0.593576E-14
     0.040     0.081   0.762132E-16
     0.040     0.091   0.855536E-18
     0.040     0.101   0.852976E-20
     0.040     0.111   0.764748E-22
     0.040     0.121   0.622798E-24
     0.040     0.131   0.464542E-26
     0.040     0.141   0.319579E-28
     0.040     0.152   0.203978E-30
     0.040     0.162   0.121412E-32
     0.040     0.172   0.676931E-35
     0.040     0.182   0.354923E-37
     0.040     0.192   0.175604E-39
     0.040     0.202   0.822406E-42
     0.040     0.212   0.365591E-44
     0.040     0.222   0.154649E-46
     0.040     0.232   0.623921E-49
     0.040     0.242   0.240568E-51
     0.040     0.253   0.888168E-54
     0.040     0.263   0.314524E-56
     0.040     0.273   0.107007E-58
     0.040     0.283   0.350274E-61
     0.040     0.293   0.110469E-63
     0.040     0.303   0.336096E-66
     0.040     0.313   0.987628E-69
     0.040     0.323   0.285033E-71
     0.040     0.333   0.753740E-72
     0.040     0.343   0.442043E-73
     0.040     0.354   0.136708E-74
     0.040     0.364   0.340705E-76
     0.040     0.374   0.452629E-75
     0.040     0.384   0.342495E-73
     0.040     0.394   0.210092E-71
     0.040     0.404   0.989200E-70
     0.040     0.414   0.319732E-68
     0.040     0.424   0.539853E-67
     0.040     0.434   0.319732E-68
     0.040     0.444   0.989200E-70
     0.040     0.455   0.210093E-71
     0.040     0.465   0.346690E-73
     0.040     0.475   0.379345E-73
     0.040     0.485   0.229916E-71
     0.040     0.495   0.108254E-69
     0.040     0.505   0.349901E-68
     0.040     0.515   0.590792E-67
     0.040     0.525   0.349901E-68
     0.040     0.535   0.108254E-69
     0.040     0.545   0.229927E-71
     0.040     0.556   0.727253E-73
     0.040     0.566   0.612692E-71
     0.040     0.576   0.253219E-71
     0.040     0.586   0.117588E-69
     0.040     0.596   0.380070E-68
     0.040     0.606   0.641731E-67
     0.040     0.616   0.380070E-68
     0.040     0.626   0.117588E-69
     0.040     0.636   0.249751E-71
     0.040     0.646   0.790621E-73
     0.040     0.657   0.668831E-71
     0.040     0.667   0.174291E-71
     0.040     0.677   0.802707E-70
     0.040     0.687   0.259452E-68
     0.040     0.697   0.438074E-67
     0.040     0.707   0.259452E-68
     0.040     0.717   0.802706E-70
     0.040     0.727   0.170496E-71
     0.040     0.737   0.694954E-73
     0.040     0.747   0.726560E-71
     0.040     0.758   0.194443E-71
     0.040     0.768   0.896045E-70
     0.040     0.778   0.289622E-68
     0.040     0.788   0.489013E-67
     0.040     0.798   0.289622E-68
     0.040     0.808   0.896076E-70
     0.040     0.818   0.223328E-71
     0.040     0.828   0.296690E-70
     0.040     0.838   0.224499E-68
     0.040     0.848   0.137711E-66
     0.040     0.859   0.648412E-65
     0.040     0.869   0.209802E-63
     0.040     0.879   0.398574E-62
     0.040     0.889   0.813721E-60
     0.040     0.899   0.133967E-56
     0.040     0.909   0.197963E-53
     0.040     0.919   0.259746E-50
     0.040     0.929   0.298634E-47
     0.040     0.939   0.295738E-44
     0.040     0.949   0.246489E-41
     0.040     0.960   0.167276E-38
     0.040     0.970   0.877753E-36
     0.040     0.980   0.324255E-33
     0.040     0.990   0.667416E-31
     0.040     1.000   0.655491-259
     0.051     0.000   0.130371E-75
     0.051     0.010   0.996691E-05
     0.051     0.020   0.899181E-06
     0.051     0.030   0.405544E-07
     0.051     0.040   0.121869E-08
     0.051     0.051   0.274477E-10
     0.051     0.061   0.494173E-12
     0.051     0.071   0.740848E-14
     0.051     0.081   0.951225E-16
     0.051     0.091   0.106780E-17
     0.051     0.101   0.106461E-19
     0.051     0.111   0.954490E-22
     0.051     0.121   0.777320E-24
     0.051     0.131   0.579800E-26
     0.051     0.141   0.398870E-28
     0.051     0.152   0.254587E-30
     0.051     0.162   0.151535E-32
     0.051     0.172   0.844885E-35
     0.051     0.182   0.442983E-37
     0.051     0.192   0.219173E-39
     0.051     0.202   0.102645E-41
     0.051     0.212   0.456298E-44
     0.051     0.222   0.193019E-46
     0.051     0.232   0.778723E-49
     0.051     0.242   0.300256E-51
     0.051     0.253   0.110853E-53
     0.051     0.263   0.392561E-56
     0.051     0.273   0.133556E-58
     0.051     0.283   0.437181E-61
     0.051     0.293   0.137878E-63
     0.051     0.303   0.419485E-66
     0.051     0.313   0.123267E-68
     0.051     0.323   0.350307E-71
     0.051     0.333   0.206984E-73
     0.051     0.343   0.709531E-75
     0.051     0.354   0.218463E-76
     0.051     0.364   0.557484E-78
     0.051     0.374   0.756261E-77
     0.051     0.384   0.564765E-75
     0.051     0.394   0.341766E-73
     0.051     0.404   0.157603E-71
     0.051     0.414   0.494873E-70
     0.051     0.424   0.800800E-69
     0.051     0.434   0.494873E-70
     0.051     0.444   0.157603E-71
     0.051     0.455   0.341767E-73
     0.051     0.465   0.572925E-75
     0.051     0.475   0.625612E-75
     0.051     0.485   0.374015E-73
     0.051     0.495   0.172474E-71
     0.051     0.505   0.541568E-70
     0.051     0.515   0.876361E-69
     0.051     0.525   0.541568E-70
     0.051     0.535   0.172474E-71
     0.051     0.545   0.374017E-73
     0.051     0.556   0.678178E-75
     0.051     0.566   0.937703E-74
     0.051     0.576   0.406776E-73
     0.051     0.586   0.187345E-71
     0.051     0.596   0.588263E-70
     0.051     0.606   0.951923E-69
     0.051     0.616   0.588263E-70
     0.051     0.626   0.187345E-71
     0.051     0.636   0.406265E-73
     0.051     0.646   0.733445E-75
     0.051     0.657   0.998541E-74
     0.051     0.667   0.277895E-73
     0.051     0.677   0.127890E-71
     0.051     0.687   0.401575E-70
     0.051     0.697   0.649825E-69
     0.051     0.707   0.401575E-70
     0.051     0.717   0.127890E-71
     0.051     0.727   0.277336E-73
     0.051     0.737   0.525980E-75
     0.051     0.747   0.108565E-73
     0.051     0.758   0.310191E-73
     0.051     0.768   0.142761E-71
     0.051     0.778   0.448270E-70
     0.051     0.788   0.725386E-69
     0.051     0.798   0.448270E-70
     0.051     0.808   0.142766E-71
     0.051     0.818   0.365315E-73
     0.051     0.828   0.495715E-72
     0.051     0.838   0.370222E-70
     0.051     0.848   0.224759E-68
     0.051     0.859   0.120596E-66
     0.051     0.869   0.406337E-64
     0.051     0.879   0.742699E-61
     0.051     0.889   0.134443E-57
     0.051     0.899   0.220744E-54
     0.051     0.909   0.325842E-51
     0.051     0.919   0.428141E-48
     0.051     0.929   0.494645E-45
     0.051     0.939   0.494709E-42
     0.051     0.949   0.419634E-39
     0.051     0.960   0.293563E-36
     0.051     0.970   0.162641E-33
     0.051     0.980   0.669311E-31
     0.051     0.990   0.182076E-28
     0.051     1.000   0.246893E-26
     0.061     0.000   0.155553E-28
     0.061     0.010   0.119382E-04
     0.061     0.020   0.107702E-05
     0.061     0.030   0.485753E-07
     0.061     0.040   0.145972E-08
     0.061     0.051   0.328763E-10
     0.061     0.061   0.591912E-12
     0.061     0.071   0.887375E-14
     0.061     0.081   0.113936E-15
     0.061     0.091   0.127900E-17
     0.061     0.101   0.127517E-19
     0.061     0.111   0.114327E-21
     0.061     0.121   0.931060E-24
     0.061     0.131   0.694474E-26
     0.061     0.141   0.477759E-28
     0.061     0.152   0.304940E-30
     0.061     0.162   0.181506E-32
     0.061     0.172   0.101199E-34
     0.061     0.182   0.530597E-37
     0.061     0.192   0.262521E-39
     0.061     0.202   0.122947E-41
     0.061     0.212   0.546545E-44
     0.061     0.222   0.231195E-46
     0.061     0.232   0.932740E-49
     0.061     0.242   0.359641E-51
     0.061     0.253   0.132778E-53
     0.061     0.263   0.470203E-56
     0.061     0.273   0.159971E-58
     0.061     0.283   0.523647E-61
     0.061     0.293   0.165147E-63
     0.061     0.303   0.502452E-66
     0.061     0.313   0.147647E-68
     0.061     0.323   0.419510E-71
     0.061     0.333   0.116742E-73
     0.061     0.343   0.394584E-76
     0.061     0.354   0.362893E-78
     0.061     0.364   0.759962E-80
     0.061     0.374   0.102137E-78
     0.061     0.384   0.755463E-77
     0.061     0.394   0.451780E-75
     0.061     0.404   0.205114E-73
     0.061     0.414   0.630799E-72
     0.061     0.424   0.991700E-71
     0.061     0.434   0.630799E-72
     0.061     0.444   0.205114E-73
     0.061     0.455   0.451781E-75
     0.061     0.465   0.766616E-77
     0.061     0.475   0.836949E-77
     0.061     0.485   0.494410E-75
     0.061     0.495   0.224468E-73
     0.061     0.505   0.690319E-72
     0.061     0.515   0.108527E-70
     0.061     0.525   0.690319E-72
     0.061     0.535   0.224468E-73
     0.061     0.545   0.494410E-75
     0.061     0.556   0.845011E-77
     0.061     0.566   0.193442E-76
     0.061     0.576   0.537100E-75
     0.061     0.586   0.243822E-73
     0.061     0.596   0.749840E-72
     0.061     0.606   0.117885E-70
     0.061     0.616   0.749840E-72
     0.061     0.626   0.243822E-73
     0.061     0.636   0.537038E-75
     0.061     0.646   0.913024E-77
     0.061     0.657   0.174713E-76
     0.061     0.667   0.366674E-75
     0.061     0.677   0.166444E-73
     0.061     0.687   0.511874E-72
     0.061     0.697   0.804734E-71
     0.061     0.707   0.511874E-72
     0.061     0.717   0.166444E-73
     0.061     0.727   0.366607E-75
     0.061     0.737   0.629577E-77
     0.061     0.747   0.191130E-76
     0.061     0.758   0.409308E-75
     0.061     0.768   0.185798E-73
     0.061     0.778   0.571395E-72
     0.061     0.788   0.898309E-71
     0.061     0.798   0.571395E-72
     0.061     0.808   0.185805E-73
     0.061     0.818   0.485088E-75
     0.061     0.828   0.669609E-74
     0.061     0.838   0.498601E-72
     0.061     0.848   0.382419E-70
     0.061     0.859   0.215722E-67
     0.061     0.869   0.437845E-64
     0.061     0.879   0.868313E-61
     0.061     0.889   0.157296E-57
     0.061     0.899   0.258269E-54
     0.061     0.909   0.381234E-51
     0.061     0.919   0.500921E-48
     0.061     0.929   0.578716E-45
     0.061     0.939   0.578763E-42
     0.061     0.949   0.490889E-39
     0.061     0.960   0.343362E-36
     0.061     0.970   0.190183E-33
     0.061     0.980   0.782298E-31
     0.061     0.990   0.212604E-28
     0.061     1.000   0.287412E-26
     0.071     0.000   0.181081E-28
     0.071     0.010   0.138974E-04
     0.071     0.020   0.125378E-05
     0.071     0.030   0.565473E-07
     0.071     0.040   0.169929E-08
     0.071     0.051   0.382719E-10
     0.071     0.061   0.689054E-12
     0.071     0.071   0.103301E-13
     0.071     0.081   0.132635E-15
     0.071     0.091   0.148890E-17
     0.071     0.101   0.148444E-19
     0.071     0.111   0.133090E-21
     0.071     0.121   0.108386E-23
     0.071     0.131   0.808449E-26
     0.071     0.141   0.556168E-28
     0.071     0.152   0.354985E-30
     0.071     0.162   0.211294E-32
     0.071     0.172   0.117807E-34
     0.071     0.182   0.617677E-37
     0.071     0.192   0.305605E-39
     0.071     0.202   0.143124E-41
     0.071     0.212   0.636243E-44
     0.071     0.222   0.269138E-46
     0.071     0.232   0.108582E-48
     0.071     0.242   0.418664E-51
     0.071     0.253   0.154569E-53
     0.071     0.263   0.547371E-56
     0.071     0.273   0.186225E-58
     0.071     0.283   0.609587E-61
     0.071     0.293   0.192251E-63
     0.071     0.303   0.584913E-66
     0.071     0.313   0.171878E-68
     0.071     0.323   0.488358E-71
     0.071     0.333   0.134321E-73
     0.071     0.343   0.358811E-76
     0.071     0.354   0.955936E-79
     0.071     0.364   0.314731E-81
     0.071     0.374   0.115899E-80
     0.071     0.384   0.850322E-79
     0.071     0.394   0.503708E-77
     0.071     0.404   0.225957E-75
     0.071     0.414   0.684162E-74
     0.071     0.424   0.105351E-72
     0.071     0.434   0.684162E-74
     0.071     0.444   0.225957E-75
     0.071     0.455   0.503709E-77
     0.071     0.465   0.862985E-79
     0.071     0.475   0.942129E-79
     0.071     0.485   0.551237E-77
     0.071     0.495   0.247277E-75
     0.071     0.505   0.748718E-74
     0.071     0.515   0.115292E-72
     0.071     0.525   0.748718E-74
     0.071     0.535   0.247277E-75
     0.071     0.545   0.551238E-77
     0.071     0.556   0.944932E-79
     0.071     0.566   0.112596E-78
     0.071     0.576   0.598772E-77
     0.071     0.586   0.268598E-75
     0.071     0.596   0.813274E-74
     0.071     0.606   0.125232E-72
     0.071     0.616   0.813274E-74
     0.071     0.626   0.268598E-75
     0.071     0.636   0.598766E-77
     0.071     0.646   0.102086E-78
     0.071     0.657   0.815941E-79
     0.071     0.667   0.408752E-77
     0.071     0.677   0.183357E-75
     0.071     0.687   0.555177E-74
     0.071     0.697   0.854891E-73
     0.071     0.707   0.555177E-74
     0.071     0.717   0.183357E-75
     0.071     0.727   0.408745E-77
     0.071     0.737   0.701230E-79
     0.071     0.747   0.901481E-79
     0.071     0.758   0.456280E-77
     0.071     0.768   0.204678E-75
     0.071     0.778   0.619733E-74
     0.071     0.788   0.954298E-73
     0.071     0.798   0.619733E-74
     0.071     0.808   0.204686E-75
     0.071     0.818   0.542893E-77
     0.071     0.828   0.773617E-76
     0.071     0.838   0.946124E-74
     0.071     0.848   0.101667E-70
     0.071     0.859   0.230741E-67
     0.071     0.869   0.498671E-64
     0.071     0.879   0.989858E-61
     0.071     0.889   0.179315E-57
     0.071     0.899   0.294423E-54
     0.071     0.909   0.434602E-51
     0.071     0.919   0.571044E-48
     0.071     0.929   0.659729E-45
     0.071     0.939   0.659783E-42
     0.071     0.949   0.559608E-39
     0.071     0.960   0.391428E-36
     0.071     0.970   0.216806E-33
     0.071     0.980   0.891806E-31
     0.071     0.990   0.242365E-28
     0.071     1.000   0.327642E-26
     0.081     0.000   0.206428E-28
     0.081     0.010   0.158427E-04
     0.081     0.020   0.142928E-05
     0.081     0.030   0.644624E-07
     0.081     0.040   0.193714E-08
     0.081     0.051   0.436289E-10
     0.081     0.061   0.785503E-12
     0.081     0.071   0.117760E-13
     0.081     0.081   0.151200E-15
     0.081     0.091   0.169731E-17
     0.081     0.101   0.169223E-19
     0.081     0.111   0.151719E-21
     0.081     0.121   0.123557E-23
     0.081     0.131   0.921609E-26
     0.081     0.141   0.634016E-28
     0.081     0.152   0.404674E-30
     0.081     0.162   0.240870E-32
     0.081     0.172   0.134297E-34
     0.081     0.182   0.704134E-37
     0.081     0.192   0.348382E-39
     0.081     0.202   0.163158E-41
     0.081     0.212   0.725299E-44
     0.081     0.222   0.306810E-46
     0.081     0.232   0.123780E-48
     0.081     0.242   0.477266E-51
     0.081     0.253   0.176204E-53
     0.081     0.263   0.623988E-56
     0.081     0.273   0.212292E-58
     0.081     0.283   0.694912E-61
     0.081     0.293   0.219161E-63
     0.081     0.303   0.666785E-66