Title="Temperature Data"
Variables="X","Y","T"
 
Zone I=    64, J=    64, F=POINT
     0.000     0.000   0.465100-309
     0.000     0.016   0.693777-309
     0.000     0.032    0.00000    
     0.000     0.048    0.00000    
     0.000     0.063   0.601347-153
     0.000     0.079   0.604274-153
     0.000     0.095   0.466724E-61
     0.000     0.111   0.179576E-51
     0.000     0.127   0.131798-258
     0.000     0.143   0.290700E-32
     0.000     0.159   0.696312E-76
     0.000     0.175   0.125766E-75
     0.000     0.190   0.207936E+26
     0.000     0.206   0.601347-153
     0.000     0.222   0.604274-153
     0.000     0.238   0.231778E-51
     0.000     0.254   0.950462E-42
     0.000     0.270   0.188708-258
     0.000     0.286   0.290700E-32
     0.000     0.302   0.696312E-76
     0.000     0.317   0.125766E-75
     0.000     0.333   0.256481E+26
     0.000     0.349   0.601347-153
     0.000     0.365   0.604274-153
     0.000     0.381   0.113000E-41
     0.000     0.397   0.652168E-37
     0.000     0.413   0.164350-258
     0.000     0.429   0.290700E-32
     0.000     0.444   0.696312E-76
     0.000     0.460   0.125766E-75
     0.000     0.476   0.195847E+26
     0.000     0.492   0.601347-153
     0.000     0.508   0.604274-153
     0.000     0.524   0.350593E-32
     0.000     0.540   0.394368E-61
     0.000     0.556   0.148122-258
     0.000     0.571   0.290700E-32
     0.000     0.587   0.696312E-76
     0.000     0.603   0.125766E-75
     0.000     0.619   0.207793E+26
     0.000     0.635   0.601347-153
     0.000     0.651   0.604274-153
     0.000     0.667   0.191756E-75
     0.000     0.683   0.601033E-66
     0.000     0.698   0.205031-258
     0.000     0.714   0.290700E-32
     0.000     0.730   0.696312E-76
     0.000     0.746   0.125766E-75
     0.000     0.762   0.304649E+26
     0.000     0.778   0.601347-153
     0.000     0.794   0.604274-153
     0.000     0.810   0.934862E-66
     0.000     0.825   0.183019E-75
     0.000     0.841   0.180673-258
     0.000     0.857   0.290700E-32
     0.000     0.873   0.696312E-76
     0.000     0.889   0.125766E-75
     0.000     0.905   0.589693E-90
     0.000     0.921   0.601347-153
     0.000     0.937   0.604274-153
     0.000     0.952   0.290066E-56
     0.000     0.968   0.681899E-37
     0.000     0.984   0.164128-258
     0.000     1.000   0.290700E-32
     0.016     0.000   0.696312E-76
     0.016     0.016   0.149189E-05
     0.016     0.032   0.136981E-07
     0.016     0.048   0.222197E-06
     0.016     0.063   0.809706E-03
     0.016     0.079    2.62719    
     0.016     0.095    7495.02    
     0.016     0.111   0.185092E+08
     0.016     0.127   0.387652E+11
     0.016     0.143   0.669529E+14
     0.016     0.159   0.915647E+17
     0.016     0.175   0.929874E+20
     0.016     0.190   0.623759E+23
     0.016     0.206   0.929874E+20
     0.016     0.222   0.915647E+17
     0.016     0.238   0.669529E+14
     0.016     0.254   0.387880E+11
     0.016     0.270   0.478339E+11
     0.016     0.286   0.825840E+14
     0.016     0.302   0.112942E+18
     0.016     0.317   0.114697E+21
     0.016     0.333   0.769383E+23
     0.016     0.349   0.114697E+21
     0.016     0.365   0.112942E+18
     0.016     0.381   0.825840E+14
     0.016     0.397   0.478328E+11
     0.016     0.413   0.365342E+11
     0.016     0.429   0.630603E+14
     0.016     0.444   0.862412E+17
     0.016     0.460   0.875812E+20
     0.016     0.476   0.587494E+23
     0.016     0.492   0.875812E+20
     0.016     0.508   0.862412E+17
     0.016     0.524   0.630603E+14
     0.016     0.540   0.365299E+11
     0.016     0.556   0.387560E+11
     0.016     0.571   0.669069E+14
     0.016     0.587   0.915018E+17
     0.016     0.603   0.929236E+20
     0.016     0.619   0.623330E+23
     0.016     0.635   0.929236E+20
     0.016     0.651   0.915018E+17
     0.016     0.667   0.669069E+14
     0.016     0.683   0.387657E+11
     0.016     0.698   0.568137E+11
     0.016     0.714   0.980934E+14
     0.016     0.730   0.134152E+18
     0.016     0.746   0.136237E+21
     0.016     0.762   0.913875E+23
     0.016     0.778   0.136237E+21
     0.016     0.794   0.134152E+18
     0.016     0.810   0.980934E+14
     0.016     0.825   0.567952E+11
     0.016     0.841   0.271180E+08
     0.016     0.857    10981.0    
     0.016     0.873    3.84914    
     0.016     0.889   0.317874E-01
     0.016     0.905    74.4668    
     0.016     0.921    151745.    
     0.016     0.937   0.249827E+09
     0.016     0.952   0.313938E+12
     0.016     0.968   0.271108E+15
     0.016     0.984   0.123589E+18
     0.016     1.000   0.696312E-76
     0.032     0.000   0.125766E-75
     0.032     0.016   0.298007E-05
     0.032     0.032   0.272529E-07
     0.032     0.048   0.672058E-09
     0.032     0.063   0.199921E-05
     0.032     0.079   0.647764E-02
     0.032     0.095    18.3903    
     0.032     0.111    44970.1    
     0.032     0.127   0.925458E+08
     0.032     0.143   0.155061E+12
     0.032     0.159   0.200859E+15
     0.032     0.175   0.183129E+18
     0.032     0.190   0.929876E+20
     0.032     0.206   0.183129E+18
     0.032     0.222   0.200859E+15
     0.032     0.238   0.155061E+12
     0.032     0.254   0.926013E+08
     0.032     0.270   0.114197E+09
     0.032     0.286   0.191261E+12
     0.032     0.302   0.247752E+15
     0.032     0.317   0.225883E+18
     0.032     0.333   0.114697E+21
     0.032     0.349   0.225883E+18
     0.032     0.365   0.247752E+15
     0.032     0.381   0.191261E+12
     0.032     0.397   0.114194E+09
     0.032     0.413   0.872207E+08
     0.032     0.429   0.146045E+12
     0.032     0.444   0.189181E+15
     0.032     0.460   0.172482E+18
     0.032     0.476   0.875813E+20
     0.032     0.492   0.172482E+18
     0.032     0.508   0.189181E+15
     0.032     0.524   0.146045E+12
     0.032     0.540   0.872102E+08
     0.032     0.556   0.925246E+08
     0.032     0.571   0.154954E+12
     0.032     0.587   0.200721E+15
     0.032     0.603   0.183004E+18
     0.032     0.619   0.929237E+20
     0.032     0.635   0.183004E+18
     0.032     0.651   0.200721E+15
     0.032     0.667   0.154954E+12
     0.032     0.683   0.925482E+08
     0.032     0.698   0.135635E+09
     0.032     0.714   0.227181E+12
     0.032     0.730   0.294280E+15
     0.032     0.746   0.268305E+18
     0.032     0.762   0.136237E+21
     0.032     0.778   0.268305E+18
     0.032     0.794   0.294280E+15
     0.032     0.810   0.227181E+12
     0.032     0.825   0.135590E+09
     0.032     0.841    65886.1    
     0.032     0.857    26.9439    
     0.032     0.873   0.182336E-01
     0.032     0.889    24.8223    
     0.032     0.905    60698.2    
     0.032     0.921   0.124913E+09
     0.032     0.937   0.209293E+12
     0.032     0.952   0.271108E+15
     0.032     0.968   0.247178E+18
     0.032     0.984   0.125509E+21
     0.032     1.000   0.125766E-75
     0.048     0.000   0.528325E-90
     0.048     0.016   0.446084E-05
     0.048     0.032   0.407944E-07
     0.048     0.048   0.186586E-09
     0.048     0.063   0.246593E-08
     0.048     0.079   0.799685E-05
     0.048     0.095   0.226717E-01
     0.048     0.111    55.1710    
     0.048     0.127    112425.    
     0.048     0.143   0.185092E+09
     0.048     0.159   0.232591E+12
     0.048     0.175   0.200859E+15
     0.048     0.190   0.915649E+17
     0.048     0.206   0.200859E+15
     0.048     0.222   0.232591E+12
     0.048     0.238   0.185092E+09
     0.048     0.254    112493.    
     0.048     0.270    138727.    
     0.048     0.286   0.228304E+09
     0.048     0.302   0.286892E+12
     0.048     0.317   0.247752E+15
     0.048     0.333   0.112942E+18
     0.048     0.349   0.247752E+15
     0.048     0.365   0.286892E+12
     0.048     0.381   0.228304E+09
     0.048     0.397    138724.    
     0.048     0.413    105957.    
     0.048     0.429   0.174330E+09
     0.048     0.444   0.219068E+12
     0.048     0.460   0.189181E+15
     0.048     0.476   0.862414E+17
     0.048     0.492   0.189181E+15
     0.048     0.508   0.219068E+12
     0.048     0.524   0.174330E+09
     0.048     0.540    105944.    
     0.048     0.556    112400.    
     0.048     0.571   0.184965E+09
     0.048     0.587   0.232431E+12
     0.048     0.603   0.200721E+15
     0.048     0.619   0.915020E+17
     0.048     0.635   0.200721E+15
     0.048     0.651   0.232431E+12
     0.048     0.667   0.184965E+09
     0.048     0.683    112429.    
     0.048     0.698    164770.    
     0.048     0.714   0.271180E+09
     0.048     0.730   0.340771E+12
     0.048     0.746   0.294280E+15
     0.048     0.762   0.134153E+18
     0.048     0.778   0.294280E+15
     0.048     0.794   0.340771E+12
     0.048     0.810   0.271180E+09
     0.048     0.825    164715.    
     0.048     0.841    80.8316    
     0.048     0.857   0.343095E-01
     0.048     0.873    3.54607    
     0.048     0.889    10116.4    
     0.048     0.905   0.249828E+08
     0.048     0.921   0.523233E+11
     0.048     0.937   0.903697E+14
     0.048     0.952   0.123589E+18
     0.048     0.968   0.125510E+21
     0.048     0.984   0.841916E+23
     0.048     1.000   0.280661E+26
     0.063     0.000   0.601347-153
     0.063     0.016   0.593052E-05
     0.063     0.032   0.542347E-07
     0.063     0.048   0.247164E-09
     0.063     0.063   0.276918E-11
     0.063     0.079   0.657431E-08
     0.063     0.095   0.186593E-04
     0.063     0.111   0.453435E-01
     0.063     0.127    91.9516    
     0.063     0.143    149900.    
     0.063     0.159   0.185092E+09
     0.063     0.175   0.155061E+12
     0.063     0.190   0.669531E+14
     0.063     0.206   0.155061E+12
     0.063     0.222   0.185092E+09
     0.063     0.238    149900.    
     0.063     0.254    92.0076    
     0.063     0.270    113.464    
     0.063     0.286    184896.    
     0.063     0.302   0.228304E+09
     0.063     0.317   0.191262E+12
     0.063     0.333   0.825842E+14
     0.063     0.349   0.191262E+12
     0.063     0.365   0.228304E+09
     0.063     0.381    184896.    
     0.063     0.397    113.462    
     0.063     0.413    86.6616    
     0.063     0.429    141185.    
     0.063     0.444   0.174331E+09
     0.063     0.460   0.146046E+12
     0.063     0.476   0.630605E+14
     0.063     0.492   0.146046E+12
     0.063     0.508   0.174331E+09
     0.063     0.524    141185.    
     0.063     0.540    86.6510    
     0.063     0.556    91.9312    
     0.063     0.571    149797.    
     0.063     0.587   0.184965E+09
     0.063     0.603   0.154954E+12
     0.063     0.619   0.669071E+14
     0.063     0.635   0.154954E+12
     0.063     0.651   0.184965E+09
     0.063     0.667    149797.    
     0.063     0.683    91.9549    
     0.063     0.698    134.765    
     0.063     0.714    219620.    
     0.063     0.730   0.271180E+09
     0.063     0.746   0.227181E+12
     0.063     0.762   0.980936E+14
     0.063     0.778   0.227181E+12
     0.063     0.794   0.271180E+09
     0.063     0.810    219620.    
     0.063     0.825    134.719    
     0.063     0.841   0.664331E-01
     0.063     0.857   0.300364E-04
     0.063     0.873   0.874319E-02
     0.063     0.889    24.8223    
     0.063     0.905    60698.2    
     0.063     0.921   0.124913E+09
     0.063     0.937   0.209293E+12
     0.063     0.952   0.271108E+15
     0.063     0.968   0.247178E+18
     0.063     0.984   0.125509E+21
     0.063     1.000   0.601347-153
     0.079     0.000   0.603687-153
     0.079     0.016   0.738546E-05
     0.079     0.032   0.675401E-07
     0.079     0.048   0.307800E-09
     0.079     0.063   0.933268E-12
     0.079     0.079   0.404363E-11
     0.079     0.095   0.115050E-07
     0.079     0.111   0.279890E-04
     0.079     0.127   0.566793E-01
     0.079     0.143    91.9517    
     0.079     0.159    112425.    
     0.079     0.175   0.925459E+08
     0.079     0.190   0.387653E+11
     0.079     0.206   0.925459E+08
     0.079     0.222    112425.    
     0.079     0.238    91.9517    
     0.079     0.254   0.567139E-01
     0.079     0.270   0.699399E-01
     0.079     0.286    113.419    
     0.079     0.302    138672.    
     0.079     0.317   0.114152E+09
     0.079     0.333   0.478155E+11
     0.079     0.349   0.114152E+09
     0.079     0.365    138672.    
     0.079     0.381    113.419    
     0.079     0.397   0.699382E-01
     0.079     0.413   0.534185E-01
     0.079     0.429    86.6056    
     0.079     0.444    105889.    
     0.079     0.460   0.871653E+08
     0.079     0.476   0.365115E+11
     0.079     0.492   0.871653E+08
     0.079     0.508    105889.    
     0.079     0.524    86.6056    
     0.079     0.540   0.534120E-01
     0.079     0.556   0.566668E-01
     0.079     0.571    91.8885    
     0.079     0.587    112348.    
     0.079     0.603   0.924823E+08
     0.079     0.619   0.387386E+11
     0.079     0.635   0.924823E+08
     0.079     0.651    112348.    
     0.079     0.667    91.8885    
     0.079     0.683   0.566814E-01
     0.079     0.698   0.830694E-01
     0.079     0.714    134.719    
     0.079     0.730    164715.    
     0.079     0.746   0.135590E+09
     0.079     0.762   0.567954E+11
     0.079     0.778   0.135590E+09
     0.079     0.794    164715.    
     0.079     0.810    134.719    
     0.079     0.825   0.830414E-01
     0.079     0.841   0.410069E-04
     0.079     0.857   0.201838E-07
     0.079     0.873   0.107937E-04
     0.079     0.889   0.306011E-01
     0.079     0.905    74.4669    
     0.079     0.921    151745.    
     0.079     0.937   0.249827E+09
     0.079     0.952   0.313939E+12
     0.079     0.968   0.271108E+15
     0.079     0.984   0.123589E+18
     0.079     1.000   0.603687-153
     0.095     0.000   0.120054E-70
     0.095     0.016   0.882204E-05
     0.095     0.032   0.806776E-07
     0.095     0.048   0.367671E-09
     0.095     0.063   0.111333E-11
     0.095     0.079   0.449870E-14
     0.095     0.095   0.565814E-11
     0.095     0.111   0.138060E-07
     0.095     0.127   0.279890E-04
     0.095     0.143   0.453435E-01
     0.095     0.159    55.1710    
     0.095     0.175    44970.1    
     0.095     0.190   0.185092E+08
     0.095     0.206    44970.1    
     0.095     0.222    55.1710    
     0.095     0.238   0.453435E-01
     0.095     0.254   0.280060E-04
     0.095     0.270   0.345372E-04
     0.095     0.286   0.559295E-01
     0.095     0.302    68.0514    
     0.095     0.317    55469.0    
     0.095     0.333   0.228305E+08
     0.095     0.349    55469.0    
     0.095     0.365    68.0514    
     0.095     0.381   0.559295E-01
     0.095     0.397   0.345364E-04
     0.095     0.413   0.263787E-04
     0.095     0.429   0.427072E-01
     0.095     0.444    51.9634    
     0.095     0.460    42355.6    
     0.095     0.476   0.174331E+08
     0.095     0.492    42355.6    
     0.095     0.508    51.9634    
     0.095     0.524   0.427072E-01
     0.095     0.540   0.263755E-04
     0.095     0.556   0.279827E-04
     0.095     0.571   0.453123E-01
     0.095     0.587    55.1331    
     0.095     0.603    44939.2    
     0.095     0.619   0.184965E+08
     0.095     0.635    44939.2    
     0.095     0.651    55.1331    
     0.095     0.667   0.453123E-01
     0.095     0.683   0.279900E-04
     0.095     0.698   0.410207E-04
     0.095     0.714   0.664332E-01
     0.095     0.730    80.8316    
     0.095     0.746    65886.1    
     0.095     0.762   0.271181E+08
     0.095     0.778    65886.1    
     0.095     0.794    80.8316    
     0.095     0.810   0.664332E-01
     0.095     0.825   0.410069E-04
     0.095     0.841   0.202274E-07
     0.095     0.857   0.110173E-10
     0.095     0.873   0.887365E-08
     0.095     0.889   0.251853E-04
     0.095     0.905   0.612022E-01
     0.095     0.921    124.111    
     0.095     0.937    202327.    
     0.095     0.952   0.249827E+09
     0.095     0.968   0.209292E+12
     0.095     0.984   0.903695E+14
     0.095     1.000   0.564434E-61
     0.111     0.000   0.350443E-32
     0.111     0.016   0.102367E-04
     0.111     0.032   0.936145E-07
     0.111     0.048   0.426629E-09
     0.111     0.063   0.129185E-11
     0.111     0.079   0.292479E-14
     0.111     0.095   0.231386E-14
     0.111     0.111   0.565813E-11
     0.111     0.127   0.115050E-07
     0.111     0.143   0.186593E-04
     0.111     0.159   0.226717E-01
     0.111     0.175    18.3904    
     0.111     0.190    7495.04    
     0.111     0.206    18.3904    
     0.111     0.222   0.226717E-01
     0.111     0.238   0.186593E-04
     0.111     0.254   0.115120E-07
     0.111     0.270   0.141967E-07
     0.111     0.286   0.230156E-04
     0.111     0.302   0.279648E-01
     0.111     0.317    22.6838    
     0.111     0.333    9244.86    
     0.111     0.349    22.6838    
     0.111     0.365   0.279648E-01
     0.111     0.381   0.230156E-04
     0.111     0.397   0.141964E-07
     0.111     0.413   0.108431E-07
     0.111     0.429   0.175745E-04
     0.111     0.444   0.213536E-01
     0.111     0.460    17.3212    
     0.111     0.476    7059.28    
     0.111     0.492    17.3212    
     0.111     0.508   0.213536E-01
     0.111     0.524   0.175745E-04
     0.111     0.540   0.108418E-07
     0.111     0.556   0.115025E-07
     0.111     0.571   0.186465E-04
     0.111     0.587   0.226562E-01
     0.111     0.603    18.3777    
     0.111     0.619    7489.89    
     0.111     0.635    18.3777    
     0.111     0.651   0.226562E-01
     0.111     0.667   0.186465E-04
     0.111     0.683   0.115054E-07
     0.111     0.698   0.168618E-07
     0.111     0.714   0.273379E-04
     0.111     0.730   0.332166E-01
     0.111     0.746    26.9439    
     0.111     0.762    10981.1    
     0.111     0.778    26.9439    
     0.111     0.794   0.332166E-01
     0.111     0.810   0.273379E-04
     0.111     0.825   0.168561E-07
     0.111     0.841   0.828979E-11
     0.111     0.857   0.505161E-14
     0.111     0.873   0.545503E-11
     0.111     0.889   0.155289E-07
     0.111     0.905   0.377780E-04
     0.111     0.921   0.765027E-01
     0.111     0.937    124.111    
     0.111     0.952    151745.    
     0.111     0.968   0.124913E+09
     0.111     0.984   0.523231E+11
     0.111     1.000   0.169135E-51
     0.127     0.000   0.156156-258
     0.127     0.016   0.116259E-04
     0.127     0.032   0.106319E-06
     0.127     0.048   0.484525E-09
     0.127     0.063   0.146716E-11
     0.127     0.079   0.332080E-14
     0.127     0.095   0.679568E-17
     0.127     0.111   0.197879E-14
     0.127     0.127   0.404152E-11
     0.127     0.143   0.657431E-08
     0.127     0.159   0.799685E-05
     0.127     0.175   0.647765E-02
     0.127     0.190    2.62720    
     0.127     0.206   0.647765E-02
     0.127     0.222   0.799685E-05
     0.127     0.238   0.657431E-08
     0.127     0.254   0.404396E-11
     0.127     0.270   0.498705E-11
     0.127     0.286   0.810916E-08
     0.127     0.302   0.986382E-05
     0.127     0.317   0.798994E-02
     0.127     0.333    3.24056    
     0.127     0.349   0.798994E-02
     0.127     0.365   0.986382E-05
     0.127     0.381   0.810916E-08
     0.127     0.397   0.498694E-11
     0.127     0.413   0.380899E-11
     0.127     0.429   0.619208E-08
     0.127     0.444   0.753192E-05
     0.127     0.460   0.610104E-02
     0.127     0.476    2.47446    
     0.127     0.492   0.610104E-02
     0.127     0.508   0.753192E-05
     0.127     0.524   0.619208E-08
     0.127     0.540   0.380853E-11
     0.127     0.556   0.404061E-11
     0.127     0.571   0.656979E-08
     0.127     0.587   0.799136E-05
     0.127     0.603   0.647320E-02
     0.127     0.619    2.62540    
     0.127     0.635   0.647320E-02
     0.127     0.651   0.799136E-05
     0.127     0.667   0.656979E-08
     0.127     0.683   0.404165E-11
     0.127     0.698   0.592325E-11
     0.127     0.714   0.963208E-08
     0.127     0.730   0.117163E-04
     0.127     0.746   0.949046E-02
     0.127     0.762    3.84914    
     0.127     0.778   0.949046E-02
     0.127     0.794   0.117163E-04
     0.127     0.810   0.963208E-08
     0.127     0.825   0.592128E-11
     0.127     0.841   0.289914E-14
     0.127     0.857   0.198898E-17
     0.127     0.873   0.267086E-14
     0.127     0.889   0.763705E-11
     0.127     0.905   0.186347E-07
     0.127     0.921   0.377780E-04
     0.127     0.937   0.612022E-01
     0.127     0.952    74.4669    
     0.127     0.968    60698.2    
     0.127     0.984   0.249827E+08
     0.127     1.000    0.00000    
     0.143     0.000   0.465100-309
     0.143     0.016   0.129862E-04
     0.143     0.032   0.118759E-06
     0.143     0.048   0.541217E-09
     0.143     0.063   0.163883E-11
     0.143     0.079   0.370935E-14
     0.143     0.095   0.669427E-17
     0.143     0.111   0.612165E-18
     0.143     0.127   0.123674E-14
     0.143     0.143   0.202076E-11
     0.143     0.159   0.246537E-08
     0.143     0.175   0.199921E-05
     0.143     0.190   0.809708E-03
     0.143     0.206   0.199921E-05
     0.143     0.222   0.246537E-08
     0.143     0.238   0.202076E-11
     0.143     0.254   0.123748E-14
     0.143     0.270   0.152608E-14
     0.143     0.286   0.249254E-11
     0.143     0.302   0.304094E-08
     0.143     0.317   0.246596E-05
     0.143     0.333   0.998745E-03
     0.143     0.349   0.246596E-05
     0.143     0.365   0.304094E-08
     0.143     0.381   0.249254E-11
     0.143     0.397   0.152604E-14
     0.143     0.413   0.116558E-14
     0.143     0.429   0.190328E-11
     0.143     0.444   0.232203E-08
     0.143     0.460   0.188298E-05
     0.143     0.476   0.762632E-03
     0.143     0.492   0.188298E-05
     0.143     0.508   0.232203E-08
     0.143     0.524   0.190328E-11
     0.143     0.540   0.116544E-14
     0.143     0.556   0.123646E-14
     0.143     0.571   0.201937E-11
     0.143     0.587   0.246367E-08
     0.143     0.603   0.199784E-05
     0.143     0.619   0.809152E-03
     0.143     0.635   0.199784E-05
     0.143     0.651   0.246367E-08
     0.143     0.667   0.201937E-11
     0.143     0.683   0.123677E-14
     0.143     0.698   0.181256E-14
     0.143     0.714   0.296064E-11
     0.143     0.730   0.361203E-08
     0.143     0.746   0.292907E-05
     0.143     0.762   0.118631E-02
     0.143     0.778   0.292907E-05
     0.143     0.794   0.361203E-08
     0.143     0.810   0.296064E-11
     0.143     0.825   0.181196E-14
     0.143     0.841   0.882190E-18
     0.143     0.857   0.683165E-21
     0.143     0.873   0.108364E-17
     0.143     0.889   0.311600E-14
     0.143     0.905   0.763704E-11
     0.143     0.921   0.155289E-07
     0.143     0.937   0.251853E-04
     0.143     0.952   0.306011E-01
     0.143     0.968    24.8223    
     0.143     0.984    10116.4    
     0.143     1.000    0.00000    
     0.159     0.000    0.00000    
     0.159     0.016   0.143142E-04
     0.159     0.032   0.130903E-06
     0.159     0.048   0.596564E-09
     0.159     0.063   0.180642E-11
     0.159     0.079   0.408868E-14
     0.159     0.095   0.737858E-17
     0.159     0.111   0.112207E-19
     0.159     0.127   0.334532E-18
     0.159     0.143   0.549662E-15
     0.159     0.159   0.673588E-12
     0.159     0.175   0.547860E-09
     0.159     0.190   0.222136E-06
     0.159     0.206   0.547860E-09
     0.159     0.222   0.673588E-12
     0.159     0.238   0.549662E-15
     0.159     0.254   0.334718E-18
     0.159     0.270   0.412778E-18
     0.159     0.286   0.677988E-15
     0.159     0.302   0.830846E-12
     0.159     0.317   0.675765E-09
     0.159     0.333   0.273996E-06
     0.159     0.349   0.675765E-09
     0.159     0.365   0.830846E-12
     0.159     0.381   0.677988E-15
     0.159     0.397   0.412768E-18
     0.159     0.413   0.315269E-18
     0.159     0.429   0.517705E-15
     0.159     0.444   0.634426E-12
     0.159     0.460   0.516007E-09
     0.159     0.476   0.209221E-06
     0.159     0.492   0.516007E-09
     0.159     0.508   0.634426E-12
     0.159     0.524   0.517705E-15
     0.159     0.540   0.315231E-18
     0.159     0.556   0.334441E-18
     0.159     0.571   0.549285E-15
     0.159     0.587   0.673125E-12
     0.159     0.603   0.547483E-09
     0.159     0.619   0.221983E-06
     0.159     0.635   0.547483E-09
     0.159     0.651   0.673125E-12
     0.159     0.667   0.549285E-15
     0.159     0.683   0.334526E-18
     0.159     0.698   0.490267E-18
     0.159     0.714   0.805316E-15
     0.159     0.730   0.986880E-12
     0.159     0.746   0.802674E-09
     0.159     0.762   0.325453E-06
     0.159     0.778   0.802674E-09
     0.159     0.794   0.986880E-12
     0.159     0.810   0.805316E-15
     0.159     0.825   0.490106E-18
     0.159     0.841   0.237055E-21
     0.159     0.857   0.207191E-24
     0.159     0.873   0.374381E-21
     0.159     0.889   0.108364E-17
     0.159     0.905   0.267086E-14
     0.159     0.921   0.545503E-11
     0.159     0.937   0.887364E-08
     0.159     0.952   0.107937E-04
     0.159     0.968   0.874317E-02
     0.159     0.984    3.54605    
     0.159     1.000    0.00000    
     0.175     0.000    0.00000    
     0.175     0.016   0.156066E-04
     0.175     0.032   0.142722E-06
     0.175     0.048   0.650427E-09
     0.175     0.063   0.196952E-11
     0.175     0.079   0.445784E-14
     0.175     0.095   0.804478E-17
     0.175     0.111   0.120574E-19
     0.175     0.127   0.963373E-22
     0.175     0.143   0.133807E-18
     0.175     0.159   0.164899E-15
     0.175     0.175   0.134718E-12
     0.175     0.190   0.547861E-10
     0.175     0.206   0.134718E-12
     0.175     0.222   0.164899E-15
     0.175     0.238   0.133807E-18
     0.175     0.254   0.809479E-22
     0.175     0.270   0.998260E-22
     0.175     0.286   0.165046E-18
     0.175     0.302   0.203397E-15
     0.175     0.317   0.166169E-12
     0.175     0.333   0.675767E-10
     0.175     0.349   0.166169E-12
     0.175     0.365   0.203397E-15
     0.175     0.381   0.165046E-18
     0.175     0.397   0.998238E-22
     0.175     0.413   0.762444E-22
     0.175     0.429   0.126028E-18
     0.175     0.444   0.155312E-15
     0.175     0.460   0.126885E-12
     0.175     0.476   0.516009E-10
     0.175     0.492   0.126885E-12
     0.175     0.508   0.155312E-15
     0.175     0.524   0.126028E-18
     0.175     0.540   0.762353E-22
     0.175     0.556   0.808810E-22
     0.175     0.571   0.133715E-18
     0.175     0.587   0.164786E-15
     0.175     0.603   0.134625E-12
     0.175     0.619   0.547485E-10
     0.175     0.635   0.134625E-12
     0.175     0.651   0.164786E-15
     0.175     0.667   0.133715E-18
     0.175     0.683   0.809014E-22
     0.175     0.698   0.118566E-21
     0.175     0.714   0.196042E-18
     0.175     0.730   0.241595E-15
     0.175     0.746   0.197376E-12
     0.175     0.762   0.802677E-10
     0.175     0.778   0.197376E-12
     0.175     0.794   0.241595E-15
     0.175     0.810   0.196042E-18
     0.175     0.825   0.118527E-21
     0.175     0.841   0.569082E-25
     0.175     0.857   0.560282E-28
     0.175     0.873   0.112344E-24
     0.175     0.889   0.327583E-21
     0.175     0.905   0.812726E-18
     0.175     0.921   0.166929E-14
     0.175     0.937   0.272752E-11
     0.175     0.952   0.332762E-08
     0.175     0.968   0.269843E-05
     0.175     0.984   0.109290E-02
     0.175     1.000    0.00000    
     0.190     0.000    0.00000    
     0.190     0.016   0.168602E-04
     0.190     0.032   0.154187E-06
     0.190     0.048   0.702673E-09
     0.190     0.063   0.212773E-11
     0.190     0.079   0.481592E-14
     0.190     0.095   0.869099E-17
     0.190     0.111   0.130259E-19
     0.190     0.127   0.166950E-22
     0.190     0.143   0.294368E-22
     0.190     0.159   0.364929E-19
     0.190     0.175   0.299816E-16
     0.190     0.190   0.122471E-13
     0.190     0.206   0.299816E-16
     0.190     0.222   0.364929E-19
     0.190     0.238   0.294182E-22
     0.190     0.254   0.176660E-25
     0.190     0.270   0.217859E-25
     0.190     0.286   0.362863E-22
     0.190     0.302   0.450127E-19
     0.190     0.317   0.369812E-16
     0.190     0.333   0.151063E-13
     0.190     0.349   0.369812E-16
     0.190     0.365   0.450127E-19
     0.190     0.381   0.362863E-22
     0.190     0.397   0.217854E-25
     0.190     0.413   0.166395E-25
     0.190     0.429   0.277078E-22
     0.190     0.444   0.343712E-19
     0.190     0.460   0.282385E-16
     0.190     0.476   0.115351E-13
     0.190     0.492   0.282385E-16
     0.190     0.508   0.343712E-19
     0.190     0.524   0.277078E-22
     0.190     0.540   0.166375E-25
     0.190     0.556   0.176514E-25
     0.190     0.571   0.293980E-22
     0.190     0.587   0.364679E-19
     0.190     0.603   0.299610E-16
     0.190     0.619   0.122387E-13
     0.190     0.635   0.299610E-16
     0.190     0.651   0.364679E-19
     0.190     0.667   0.293980E-22
     0.190     0.683   0.176558E-25
     0.190     0.698   0.258758E-25
     0.190     0.714   0.431009E-22
     0.190     0.730   0.534661E-19
     0.190     0.746   0.439264E-16
     0.190     0.762   0.179433E-13
     0.190     0.778   0.439264E-16
     0.190     0.794   0.534661E-19
     0.190     0.810   0.431009E-22
     0.190     0.825   0.258674E-25
     0.190     0.841   0.123200E-28
     0.190     0.857   0.136199E-31
     0.190     0.873   0.297259E-28
     0.190     0.889   0.873787E-25
     0.190     0.905   0.218389E-21
     0.190     0.921   0.451515E-18
     0.190     0.937   0.741905E-15
     0.190     0.952   0.909172E-12
     0.190     0.968   0.739471E-09
     0.190     0.984   0.299826E-06