Title="Temperature Data"
Variables="X","Y","T"
 
Zone I=    64, J=    64, F=POINT
     0.000     0.000    0.00000    
     0.000     0.016    0.00000    
     0.000     0.032    0.00000    
     0.000     0.048    0.00000    
     0.000     0.063    0.00000    
     0.000     0.079    0.00000    
     0.000     0.095    0.00000    
     0.000     0.111    0.00000    
     0.000     0.127    0.00000    
     0.000     0.143    0.00000    
     0.000     0.159    0.00000    
     0.000     0.175    0.00000    
     0.000     0.190    0.00000    
     0.000     0.206    0.00000    
     0.000     0.222    0.00000    
     0.000     0.238    0.00000    
     0.000     0.254    0.00000    
     0.000     0.270    0.00000    
     0.000     0.286    0.00000    
     0.000     0.302    0.00000    
     0.000     0.317    0.00000    
     0.000     0.333    0.00000    
     0.000     0.349    0.00000    
     0.000     0.365    0.00000    
     0.000     0.381    0.00000    
     0.000     0.397    0.00000    
     0.000     0.413    0.00000    
     0.000     0.429    0.00000    
     0.000     0.444    0.00000    
     0.000     0.460    0.00000    
     0.000     0.476    0.00000    
     0.000     0.492    0.00000    
     0.000     0.508    0.00000    
     0.000     0.524    0.00000    
     0.000     0.540    0.00000    
     0.000     0.556    0.00000    
     0.000     0.571    0.00000    
     0.000     0.587    0.00000    
     0.000     0.603    0.00000    
     0.000     0.619    0.00000    
     0.000     0.635    0.00000    
     0.000     0.651    0.00000    
     0.000     0.667    0.00000    
     0.000     0.683    0.00000    
     0.000     0.698    0.00000    
     0.000     0.714    0.00000    
     0.000     0.730    0.00000    
     0.000     0.746    0.00000    
     0.000     0.762    0.00000    
     0.000     0.778    0.00000    
     0.000     0.794    0.00000    
     0.000     0.810    0.00000    
     0.000     0.825    0.00000    
     0.000     0.841    0.00000    
     0.000     0.857    0.00000    
     0.000     0.873    0.00000    
     0.000     0.889    0.00000    
     0.000     0.905    0.00000    
     0.000     0.921    0.00000    
     0.000     0.937    0.00000    
     0.000     0.952    0.00000    
     0.000     0.968    0.00000    
     0.000     0.984    0.00000    
     0.000     1.000    0.00000    
     0.016     0.000   0.498459E-01
     0.016     0.016   0.326302E-01
     0.016     0.032   0.185758E-01
     0.016     0.048   0.912214E-02
     0.016     0.063   0.385200E-02
     0.016     0.079   0.139864E-02
     0.016     0.095   0.437411E-03
     0.016     0.111   0.118109E-03
     0.016     0.127   0.276028E-04
     0.016     0.143   0.559514E-05
     0.016     0.159   0.985177E-06
     0.016     0.175   0.150795E-06
     0.016     0.190   0.200616E-07
     0.016     0.206   0.231715E-08
     0.016     0.222   0.231821E-09
     0.016     0.238   0.200162E-10
     0.016     0.254   0.148373E-11
     0.016     0.270   0.937390E-13
     0.016     0.286   0.499798E-14
     0.016     0.302   0.221901E-15
     0.016     0.317   0.805375E-17
     0.016     0.333   0.232780E-18
     0.016     0.349   0.515317E-20
     0.016     0.365   0.820539E-22
     0.016     0.381   0.836679E-24
     0.016     0.397   0.410352E-26
     0.016     0.413    0.00000    
     0.016     0.429    0.00000    
     0.016     0.444    0.00000    
     0.016     0.460    0.00000    
     0.016     0.476    0.00000    
     0.016     0.492    0.00000    
     0.016     0.508    0.00000    
     0.016     0.524    0.00000    
     0.016     0.540    0.00000    
     0.016     0.556    0.00000    
     0.016     0.571    0.00000    
     0.016     0.587    0.00000    
     0.016     0.603    0.00000    
     0.016     0.619    0.00000    
     0.016     0.635    0.00000    
     0.016     0.651    0.00000    
     0.016     0.667    0.00000    
     0.016     0.683    0.00000    
     0.016     0.698    0.00000    
     0.016     0.714    0.00000    
     0.016     0.730    0.00000    
     0.016     0.746    0.00000    
     0.016     0.762    0.00000    
     0.016     0.778    0.00000    
     0.016     0.794    0.00000    
     0.016     0.810    0.00000    
     0.016     0.825    0.00000    
     0.016     0.841    0.00000    
     0.016     0.857    0.00000    
     0.016     0.873    0.00000    
     0.016     0.889    0.00000    
     0.016     0.905    0.00000    
     0.016     0.921    0.00000    
     0.016     0.937    0.00000    
     0.016     0.952    0.00000    
     0.016     0.968    0.00000    
     0.016     0.984    0.00000    
     0.016     1.000    0.00000    
     0.032     0.000   0.995678E-01
     0.032     0.016   0.651793E-01
     0.032     0.032   0.371054E-01
     0.032     0.048   0.182216E-01
     0.032     0.063   0.769442E-02
     0.032     0.079   0.279379E-02
     0.032     0.095   0.873734E-03
     0.032     0.111   0.235925E-03
     0.032     0.127   0.551369E-04
     0.032     0.143   0.111764E-04
     0.032     0.159   0.196790E-05
     0.032     0.175   0.301214E-06
     0.032     0.190   0.400733E-07
     0.032     0.206   0.462854E-08
     0.032     0.222   0.463066E-09
     0.032     0.238   0.399825E-10
     0.032     0.254   0.296377E-11
     0.032     0.270   0.187245E-12
     0.032     0.286   0.998354E-14
     0.032     0.302   0.443250E-15
     0.032     0.317   0.160875E-16
     0.032     0.333   0.464981E-18
     0.032     0.349   0.102935E-19
     0.032     0.365   0.163904E-21
     0.032     0.381   0.167128E-23
     0.032     0.397   0.819684E-26
     0.032     0.413    0.00000    
     0.032     0.429    0.00000    
     0.032     0.444    0.00000    
     0.032     0.460    0.00000    
     0.032     0.476    0.00000    
     0.032     0.492    0.00000    
     0.032     0.508    0.00000    
     0.032     0.524    0.00000    
     0.032     0.540    0.00000    
     0.032     0.556    0.00000    
     0.032     0.571    0.00000    
     0.032     0.587    0.00000    
     0.032     0.603    0.00000    
     0.032     0.619    0.00000    
     0.032     0.635    0.00000    
     0.032     0.651    0.00000    
     0.032     0.667    0.00000    
     0.032     0.683    0.00000    
     0.032     0.698    0.00000    
     0.032     0.714    0.00000    
     0.032     0.730    0.00000    
     0.032     0.746    0.00000    
     0.032     0.762    0.00000    
     0.032     0.778    0.00000    
     0.032     0.794    0.00000    
     0.032     0.810    0.00000    
     0.032     0.825    0.00000    
     0.032     0.841    0.00000    
     0.032     0.857    0.00000    
     0.032     0.873    0.00000    
     0.032     0.889    0.00000    
     0.032     0.905    0.00000    
     0.032     0.921    0.00000    
     0.032     0.937    0.00000    
     0.032     0.952    0.00000    
     0.032     0.968    0.00000    
     0.032     0.984    0.00000    
     0.032     1.000    0.00000    
     0.048     0.000   0.149042    
     0.048     0.016   0.975664E-01
     0.048     0.032   0.555428E-01
     0.048     0.048   0.272758E-01
     0.048     0.063   0.115177E-01
     0.048     0.079   0.418201E-02
     0.048     0.095   0.130788E-02
     0.048     0.111   0.353153E-03
     0.048     0.127   0.825339E-04
     0.048     0.143   0.167298E-04
     0.048     0.159   0.294574E-05
     0.048     0.175   0.450885E-06
     0.048     0.190   0.599854E-07
     0.048     0.206   0.692842E-08
     0.048     0.222   0.693160E-09
     0.048     0.238   0.598495E-10
     0.048     0.254   0.443644E-11
     0.048     0.270   0.280285E-12
     0.048     0.286   0.149443E-13
     0.048     0.302   0.663497E-15
     0.048     0.317   0.240812E-16
     0.048     0.333   0.696026E-18
     0.048     0.349   0.154083E-19
     0.048     0.365   0.245346E-21
     0.048     0.381   0.250172E-23
     0.048     0.397   0.122698E-25
     0.048     0.413    0.00000    
     0.048     0.429    0.00000    
     0.048     0.444    0.00000    
     0.048     0.460    0.00000    
     0.048     0.476    0.00000    
     0.048     0.492    0.00000    
     0.048     0.508    0.00000    
     0.048     0.524    0.00000    
     0.048     0.540    0.00000    
     0.048     0.556    0.00000    
     0.048     0.571    0.00000    
     0.048     0.587    0.00000    
     0.048     0.603    0.00000    
     0.048     0.619    0.00000    
     0.048     0.635    0.00000    
     0.048     0.651    0.00000    
     0.048     0.667    0.00000    
     0.048     0.683    0.00000    
     0.048     0.698    0.00000    
     0.048     0.714    0.00000    
     0.048     0.730    0.00000    
     0.048     0.746    0.00000    
     0.048     0.762    0.00000    
     0.048     0.778    0.00000    
     0.048     0.794    0.00000    
     0.048     0.810    0.00000    
     0.048     0.825    0.00000    
     0.048     0.841    0.00000    
     0.048     0.857    0.00000    
     0.048     0.873    0.00000    
     0.048     0.889    0.00000    
     0.048     0.905    0.00000    
     0.048     0.921    0.00000    
     0.048     0.937    0.00000    
     0.048     0.952    0.00000    
     0.048     0.968    0.00000    
     0.048     0.984    0.00000    
     0.048     1.000    0.00000    
     0.063     0.000   0.198146    
     0.063     0.016   0.129711    
     0.063     0.032   0.738420E-01
     0.063     0.048   0.362621E-01
     0.063     0.063   0.153124E-01
     0.063     0.079   0.555982E-02
     0.063     0.095   0.173878E-02
     0.063     0.111   0.469504E-03
     0.063     0.127   0.109726E-03
     0.063     0.143   0.222417E-04
     0.063     0.159   0.391625E-05
     0.063     0.175   0.599435E-06
     0.063     0.190   0.797484E-07
     0.063     0.206   0.921108E-08
     0.063     0.222   0.921530E-09
     0.063     0.238   0.795677E-10
     0.063     0.254   0.589808E-11
     0.063     0.270   0.372629E-12
     0.063     0.286   0.198679E-13
     0.063     0.302   0.882095E-15
     0.063     0.317   0.320151E-16
     0.063     0.333   0.925341E-18
     0.063     0.349   0.204847E-19
     0.063     0.365   0.326179E-21
     0.063     0.381   0.332595E-23
     0.063     0.397   0.163122E-25
     0.063     0.413    0.00000    
     0.063     0.429    0.00000    
     0.063     0.444    0.00000    
     0.063     0.460    0.00000    
     0.063     0.476    0.00000    
     0.063     0.492    0.00000    
     0.063     0.508    0.00000    
     0.063     0.524    0.00000    
     0.063     0.540    0.00000    
     0.063     0.556    0.00000    
     0.063     0.571    0.00000    
     0.063     0.587    0.00000    
     0.063     0.603    0.00000    
     0.063     0.619    0.00000    
     0.063     0.635    0.00000    
     0.063     0.651    0.00000    
     0.063     0.667    0.00000    
     0.063     0.683    0.00000    
     0.063     0.698    0.00000    
     0.063     0.714    0.00000    
     0.063     0.730    0.00000    
     0.063     0.746    0.00000    
     0.063     0.762    0.00000    
     0.063     0.778    0.00000    
     0.063     0.794    0.00000    
     0.063     0.810    0.00000    
     0.063     0.825    0.00000    
     0.063     0.841    0.00000    
     0.063     0.857    0.00000    
     0.063     0.873    0.00000    
     0.063     0.889    0.00000    
     0.063     0.905    0.00000    
     0.063     0.921    0.00000    
     0.063     0.937    0.00000    
     0.063     0.952    0.00000    
     0.063     0.968    0.00000    
     0.063     0.984    0.00000    
     0.063     1.000    0.00000    
     0.079     0.000   0.246757    
     0.079     0.016   0.161533    
     0.079     0.032   0.919577E-01
     0.079     0.048   0.451583E-01
     0.079     0.063   0.190690E-01
     0.079     0.079   0.692382E-02
     0.079     0.095   0.216536E-02
     0.079     0.111   0.584688E-03
     0.079     0.127   0.136645E-03
     0.079     0.143   0.276982E-04
     0.079     0.159   0.487702E-05
     0.079     0.175   0.746495E-06
     0.079     0.190   0.993131E-07
     0.079     0.206   0.114708E-07
     0.079     0.222   0.114761E-08
     0.079     0.238   0.990881E-10
     0.079     0.254   0.734506E-11
     0.079     0.270   0.464046E-12
     0.079     0.286   0.247420E-13
     0.079     0.302   0.109850E-14
     0.079     0.317   0.398693E-16
     0.079     0.333   0.115235E-17
     0.079     0.349   0.255103E-19
     0.079     0.365   0.406200E-21
     0.079     0.381   0.414190E-23
     0.079     0.397   0.203141E-25
     0.079     0.413    0.00000    
     0.079     0.429    0.00000    
     0.079     0.444    0.00000    
     0.079     0.460    0.00000    
     0.079     0.476    0.00000    
     0.079     0.492    0.00000    
     0.079     0.508    0.00000    
     0.079     0.524    0.00000    
     0.079     0.540    0.00000    
     0.079     0.556    0.00000    
     0.079     0.571    0.00000    
     0.079     0.587    0.00000    
     0.079     0.603    0.00000    
     0.079     0.619    0.00000    
     0.079     0.635    0.00000    
     0.079     0.651    0.00000    
     0.079     0.667    0.00000    
     0.079     0.683    0.00000    
     0.079     0.698    0.00000    
     0.079     0.714    0.00000    
     0.079     0.730    0.00000    
     0.079     0.746    0.00000    
     0.079     0.762    0.00000    
     0.079     0.778    0.00000    
     0.079     0.794    0.00000    
     0.079     0.810    0.00000    
     0.079     0.825    0.00000    
     0.079     0.841    0.00000    
     0.079     0.857    0.00000    
     0.079     0.873    0.00000    
     0.079     0.889    0.00000    
     0.079     0.905    0.00000    
     0.079     0.921    0.00000    
     0.079     0.937    0.00000    
     0.079     0.952    0.00000    
     0.079     0.968    0.00000    
     0.079     0.984    0.00000    
     0.079     1.000    0.00000    
     0.095     0.000   0.294755    
     0.095     0.016   0.192953    
     0.095     0.032   0.109845    
     0.095     0.048   0.539423E-01
     0.095     0.063   0.227781E-01
     0.095     0.079   0.827060E-02
     0.095     0.095   0.258655E-02
     0.095     0.111   0.698418E-03
     0.095     0.127   0.163224E-03
     0.095     0.143   0.330859E-04
     0.095     0.159   0.582567E-05
     0.095     0.175   0.891698E-06
     0.095     0.190   0.118631E-06
     0.095     0.206   0.137021E-07
     0.095     0.222   0.137084E-08
     0.095     0.238   0.118362E-09
     0.095     0.254   0.877377E-11
     0.095     0.270   0.554310E-12
     0.095     0.286   0.295547E-13
     0.095     0.302   0.131217E-14
     0.095     0.317   0.476245E-16
     0.095     0.333   0.137650E-17
     0.095     0.349   0.304724E-19
     0.095     0.365   0.485212E-21
     0.095     0.381   0.494756E-23
     0.095     0.397   0.242655E-25
     0.095     0.413    0.00000    
     0.095     0.429    0.00000    
     0.095     0.444    0.00000    
     0.095     0.460    0.00000    
     0.095     0.476    0.00000    
     0.095     0.492    0.00000    
     0.095     0.508    0.00000    
     0.095     0.524    0.00000    
     0.095     0.540    0.00000    
     0.095     0.556    0.00000    
     0.095     0.571    0.00000    
     0.095     0.587    0.00000    
     0.095     0.603    0.00000    
     0.095     0.619    0.00000    
     0.095     0.635    0.00000    
     0.095     0.651    0.00000    
     0.095     0.667    0.00000    
     0.095     0.683    0.00000    
     0.095     0.698    0.00000    
     0.095     0.714    0.00000    
     0.095     0.730    0.00000    
     0.095     0.746    0.00000    
     0.095     0.762    0.00000    
     0.095     0.778    0.00000    
     0.095     0.794    0.00000    
     0.095     0.810    0.00000    
     0.095     0.825    0.00000    
     0.095     0.841    0.00000    
     0.095     0.857    0.00000    
     0.095     0.873    0.00000    
     0.095     0.889    0.00000    
     0.095     0.905    0.00000    
     0.095     0.921    0.00000    
     0.095     0.937    0.00000    
     0.095     0.952    0.00000    
     0.095     0.968    0.00000    
     0.095     0.984    0.00000    
     0.095     1.000    0.00000    
     0.111     0.000   0.342020    
     0.111     0.016   0.223894    
     0.111     0.032   0.127459    
     0.111     0.048   0.625921E-01
     0.111     0.063   0.264307E-01
     0.111     0.079   0.959681E-02
     0.111     0.095   0.300132E-02
     0.111     0.111   0.810412E-03
     0.111     0.127   0.189398E-03
     0.111     0.143   0.383914E-04
     0.111     0.159   0.675984E-05
     0.111     0.175   0.103469E-05
     0.111     0.190   0.137654E-06
     0.111     0.206   0.158992E-07
     0.111     0.222   0.159065E-08
     0.111     0.238   0.137342E-09
     0.111     0.254   0.101807E-10
     0.111     0.270   0.643195E-12
     0.111     0.286   0.342939E-13
     0.111     0.302   0.152258E-14
     0.111     0.317   0.552612E-16
     0.111     0.333   0.159723E-17
     0.111     0.349   0.353587E-19
     0.111     0.365   0.563017E-21
     0.111     0.381   0.574092E-23
     0.111     0.397   0.281565E-25
     0.111     0.413    0.00000    
     0.111     0.429    0.00000    
     0.111     0.444    0.00000    
     0.111     0.460    0.00000    
     0.111     0.476    0.00000    
     0.111     0.492    0.00000    
     0.111     0.508    0.00000    
     0.111     0.524    0.00000    
     0.111     0.540    0.00000    
     0.111     0.556    0.00000    
     0.111     0.571    0.00000    
     0.111     0.587    0.00000    
     0.111     0.603    0.00000    
     0.111     0.619    0.00000    
     0.111     0.635    0.00000    
     0.111     0.651    0.00000    
     0.111     0.667    0.00000    
     0.111     0.683    0.00000    
     0.111     0.698    0.00000    
     0.111     0.714    0.00000    
     0.111     0.730    0.00000    
     0.111     0.746    0.00000    
     0.111     0.762    0.00000    
     0.111     0.778    0.00000    
     0.111     0.794    0.00000    
     0.111     0.810    0.00000    
     0.111     0.825    0.00000    
     0.111     0.841    0.00000    
     0.111     0.857    0.00000    
     0.111     0.873    0.00000    
     0.111     0.889    0.00000    
     0.111     0.905    0.00000    
     0.111     0.921    0.00000    
     0.111     0.937    0.00000    
     0.111     0.952    0.00000    
     0.111     0.968    0.00000    
     0.111     0.984    0.00000    
     0.111     1.000    0.00000    
     0.127     0.000   0.388435    
     0.127     0.016   0.254278    
     0.127     0.032   0.144756    
     0.127     0.048   0.710863E-01
     0.127     0.063   0.300175E-01
     0.127     0.079   0.108992E-01
     0.127     0.095   0.340862E-02
     0.127     0.111   0.920390E-03
     0.127     0.127   0.215100E-03
     0.127     0.143   0.436013E-04
     0.127     0.159   0.767720E-05
     0.127     0.175   0.117510E-05
     0.127     0.190   0.156334E-06
     0.127     0.206   0.180569E-07
     0.127     0.222   0.180652E-08
     0.127     0.238   0.155980E-09
     0.127     0.254   0.115623E-10
     0.127     0.270   0.730481E-12
     0.127     0.286   0.389479E-13
     0.127     0.302   0.172921E-14
     0.127     0.317   0.627606E-16
     0.127     0.333   0.181399E-17
     0.127     0.349   0.401572E-19
     0.127     0.365   0.639423E-21
     0.127     0.381   0.652000E-23
     0.127     0.397   0.319776E-25
     0.127     0.413    0.00000    
     0.127     0.429    0.00000    
     0.127     0.444    0.00000    
     0.127     0.460    0.00000    
     0.127     0.476    0.00000    
     0.127     0.492    0.00000    
     0.127     0.508    0.00000    
     0.127     0.524    0.00000    
     0.127     0.540    0.00000    
     0.127     0.556    0.00000    
     0.127     0.571    0.00000    
     0.127     0.587    0.00000    
     0.127     0.603    0.00000    
     0.127     0.619    0.00000    
     0.127     0.635    0.00000    
     0.127     0.651    0.00000    
     0.127     0.667    0.00000    
     0.127     0.683    0.00000    
     0.127     0.698    0.00000    
     0.127     0.714    0.00000    
     0.127     0.730    0.00000    
     0.127     0.746    0.00000    
     0.127     0.762    0.00000    
     0.127     0.778    0.00000    
     0.127     0.794    0.00000    
     0.127     0.810    0.00000    
     0.127     0.825    0.00000    
     0.127     0.841    0.00000    
     0.127     0.857    0.00000    
     0.127     0.873    0.00000    
     0.127     0.889    0.00000    
     0.127     0.905    0.00000    
     0.127     0.921    0.00000    
     0.127     0.937    0.00000    
     0.127     0.952    0.00000    
     0.127     0.968    0.00000    
     0.127     0.984    0.00000    
     0.127     1.000    0.00000    
     0.143     0.000   0.433884    
     0.143     0.016   0.284030    
     0.143     0.032   0.161693    
     0.143     0.048   0.794037E-01
     0.143     0.063   0.335297E-01
     0.143     0.079   0.121744E-01
     0.143     0.095   0.380744E-02
     0.143     0.111   0.102808E-02
     0.143     0.127   0.240268E-03
     0.143     0.143   0.487029E-04
     0.143     0.159   0.857547E-05
     0.143     0.175   0.131259E-05
     0.143     0.190   0.174626E-06
     0.143     0.206   0.201696E-07
     0.143     0.222   0.201789E-08
     0.143     0.238   0.174231E-09
     0.143     0.254   0.129151E-10
     0.143     0.270   0.815952E-12
     0.143     0.286   0.435050E-13
     0.143     0.302   0.193154E-14
     0.143     0.317   0.701039E-16
     0.143     0.333   0.202623E-17
     0.143     0.349   0.448558E-19
     0.143     0.365   0.714239E-21
     0.143     0.381   0.728288E-23
     0.143     0.397   0.357191E-25
     0.143     0.413    0.00000    
     0.143     0.429    0.00000    
     0.143     0.444    0.00000    
     0.143     0.460    0.00000    
     0.143     0.476    0.00000    
     0.143     0.492    0.00000    
     0.143     0.508    0.00000    
     0.143     0.524    0.00000    
     0.143     0.540    0.00000    
     0.143     0.556    0.00000    
     0.143     0.571    0.00000    
     0.143     0.587    0.00000    
     0.143     0.603    0.00000    
     0.143     0.619    0.00000    
     0.143     0.635    0.00000    
     0.143     0.651    0.00000    
     0.143     0.667    0.00000    
     0.143     0.683    0.00000    
     0.143     0.698    0.00000    
     0.143     0.714    0.00000    
     0.143     0.730    0.00000    
     0.143     0.746    0.00000    
     0.143     0.762    0.00000    
     0.143     0.778    0.00000    
     0.143     0.794    0.00000    
     0.143     0.810    0.00000    
     0.143     0.825    0.00000    
     0.143     0.841    0.00000    
     0.143     0.857    0.00000    
     0.143     0.873    0.00000    
     0.143     0.889    0.00000    
     0.143     0.905    0.00000    
     0.143     0.921    0.00000    
     0.143     0.937    0.00000    
     0.143     0.952    0.00000    
     0.143     0.968    0.00000    
     0.143     0.984    0.00000    
     0.143     1.000    0.00000    
     0.159     0.000   0.478254    
     0.159     0.016   0.313076    
     0.159     0.032   0.178228    
     0.159     0.048   0.875238E-01
     0.159     0.063   0.369586E-01
     0.159     0.079   0.134194E-01
     0.159     0.095   0.419680E-02
     0.159     0.111   0.113322E-02
     0.159     0.127   0.264839E-03
     0.159     0.143   0.536834E-04
     0.159     0.159   0.945243E-05
     0.159     0.175   0.144682E-05
     0.159     0.190   0.192484E-06
     0.159     0.206   0.222323E-07
     0.159     0.222   0.222424E-08
     0.159     0.238   0.192048E-09
     0.159     0.254   0.142359E-10
     0.159     0.270   0.899393E-12
     0.159     0.286   0.479539E-13
     0.159     0.302   0.212906E-14
     0.159     0.317   0.772729E-16
     0.159     0.333   0.223344E-17
     0.159     0.349   0.494429E-19
     0.159     0.365   0.787279E-21
     0.159     0.381   0.802765E-23
     0.159     0.397   0.393719E-25
     0.159     0.413    0.00000    
     0.159     0.429    0.00000    
     0.159     0.444    0.00000    
     0.159     0.460    0.00000    
     0.159     0.476    0.00000    
     0.159     0.492    0.00000    
     0.159     0.508    0.00000    
     0.159     0.524    0.00000    
     0.159     0.540    0.00000    
     0.159     0.556    0.00000    
     0.159     0.571    0.00000    
     0.159     0.587    0.00000    
     0.159     0.603    0.00000    
     0.159     0.619    0.00000    
     0.159     0.635    0.00000    
     0.159     0.651    0.00000    
     0.159     0.667    0.00000    
     0.159     0.683    0.00000    
     0.159     0.698    0.00000    
     0.159     0.714    0.00000    
     0.159     0.730    0.00000    
     0.159     0.746    0.00000    
     0.159     0.762    0.00000    
     0.159     0.778    0.00000    
     0.159     0.794    0.00000    
     0.159     0.810    0.00000    
     0.159     0.825    0.00000    
     0.159     0.841    0.00000    
     0.159     0.857    0.00000    
     0.159     0.873    0.00000    
     0.159     0.889    0.00000    
     0.159     0.905    0.00000    
     0.159     0.921    0.00000    
     0.159     0.937    0.00000    
     0.159     0.952    0.00000    
     0.159     0.968    0.00000    
     0.159     0.984    0.00000    
     0.159     1.000    0.00000    
     0.175     0.000   0.521435    
     0.175     0.016   0.341343    
     0.175     0.032   0.194320    
     0.175     0.048   0.954263E-01
     0.175     0.063   0.402956E-01
     0.175     0.079   0.146311E-01
     0.175     0.095   0.457573E-02
     0.175     0.111   0.123553E-02
     0.175     0.127   0.288751E-03
     0.175     0.143   0.585305E-04
     0.175     0.159   0.103059E-04
     0.175     0.175   0.157745E-05
     0.175     0.190   0.209863E-06
     0.175     0.206   0.242396E-07
     0.175     0.222   0.242507E-08
     0.175     0.238   0.209388E-09
     0.175     0.254   0.155212E-10
     0.175     0.270   0.980599E-12
     0.175     0.286   0.522836E-13
     0.175     0.302   0.232129E-14
     0.175     0.317   0.842498E-16
     0.175     0.333   0.243510E-17
     0.175     0.349   0.539070E-19
     0.175     0.365   0.858362E-21
     0.175     0.381   0.875246E-23
     0.175     0.397   0.429267E-25
     0.175     0.413    0.00000    
     0.175     0.429    0.00000    
     0.175     0.444    0.00000    
     0.175     0.460    0.00000    
     0.175     0.476    0.00000    
     0.175     0.492    0.00000    
     0.175     0.508    0.00000    
     0.175     0.524    0.00000    
     0.175     0.540    0.00000    
     0.175     0.556    0.00000    
     0.175     0.571    0.00000    
     0.175     0.587    0.00000    
     0.175     0.603    0.00000    
     0.175     0.619    0.00000    
     0.175     0.635    0.00000    
     0.175     0.651    0.00000    
     0.175     0.667    0.00000    
     0.175     0.683    0.00000    
     0.175     0.698    0.00000    
     0.175     0.714    0.00000    
     0.175     0.730    0.00000    
     0.175     0.746    0.00000    
     0.175     0.762    0.00000    
     0.175     0.778    0.00000    
     0.175     0.794    0.00000    
     0.175     0.810    0.00000    
     0.175     0.825    0.00000    
     0.175     0.841    0.00000    
     0.175     0.857    0.00000    
     0.175     0.873    0.00000    
     0.175     0.889    0.00000    
     0.175     0.905    0.00000    
     0.175     0.921    0.00000    
     0.175     0.937    0.00000    
     0.175     0.952    0.00000    
     0.175     0.968    0.00000    
     0.175     0.984    0.00000    
     0.175     1.000    0.00000    
     0.190     0.000   0.563320    
     0.190     0.016   0.368762    
     0.190     0.032   0.209929    
     0.190     0.048   0.103091    
     0.190     0.063   0.435323E-01
     0.190     0.079   0.158063E-01
     0.190     0.095   0.494328E-02
     0.190     0.111   0.133478E-02
     0.190     0.127   0.311945E-03
     0.190     0.143   0.632320E-04
     0.190     0.159   0.111337E-04
     0.190     0.175   0.170417E-05
     0.190     0.190   0.226721E-06
     0.190     0.206   0.261867E-07
     0.190     0.222   0.261987E-08
     0.190     0.238   0.226207E-09
     0.190     0.254   0.167680E-10
     0.190     0.270   0.105937E-11
     0.190     0.286   0.564834E-13
     0.190     0.302   0.250775E-14
     0.190     0.317   0.910173E-16
     0.190     0.333   0.263070E-17
     0.190     0.349   0.582372E-19
     0.190     0.365   0.927311E-21
     0.190     0.381   0.945551E-23
     0.190     0.397   0.463749E-25
     0.190     0.413    0.00000    
     0.190     0.429    0.00000    
     0.190     0.444    0.00000    
     0.190     0.460    0.00000    
     0.190     0.476    0.00000    
     0.190     0.492    0.00000    
     0.190     0.508    0.00000    
     0.190     0.524    0.00000    
     0.190     0.540    0.00000    
     0.190     0.556    0.00000    
     0.190     0.571    0.00000    
     0.190     0.587    0.00000    
     0.190     0.603    0.00000    
     0.190     0.619    0.00000    
     0.190     0.635    0.00000    
     0.190     0.651    0.00000    
     0.190     0.667    0.00000    
     0.190     0.683    0.00000    
     0.190     0.698    0.00000    
     0.190     0.714    0.00000    
     0.190     0.730    0.00000    
     0.190     0.746    0.00000    
     0.190     0.762    0.00000    
     0.190     0.778    0.00000    
     0.190     0.794    0.00000    
     0.190     0.810    0.00000    
     0.190     0.825    0.00000    
     0.190     0.841    0.00000    
     0.190     0.857    0.00000    
     0.190     0.873    0.00000    
     0.190     0.889    0.00000    
     0.190     0.905    0.00000    
     0.190     0.921    0.00000    
     0.190     0.937    0.00000    
     0.190     0.952    0.00000    
     0.190     0.968    0.00000    
     0.190     0.984    0.00000    