Title="Temperature Data"
Variables="X","Y","T"
 
Zone I=   128, J=   128, F=POINT
     0.000     1.000    0.00000    
     0.000     0.992   0.118829E-01
     0.000     0.984   0.167887E-01
     0.000     0.976   0.199421E-01
     0.000     0.969   0.229130E-01
     0.000     0.961   0.261163E-01
     0.000     0.953   0.295815E-01
     0.000     0.945   0.332205E-01
     0.000     0.937   0.369271E-01
     0.000     0.929   0.406137E-01
     0.000     0.921   0.442191E-01
     0.000     0.913   0.477052E-01
     0.000     0.906   0.510508E-01
     0.000     0.898   0.542453E-01
     0.000     0.890   0.572844E-01
     0.000     0.882   0.601668E-01
     0.000     0.874   0.628930E-01
     0.000     0.866   0.654641E-01
     0.000     0.858   0.678814E-01
     0.000     0.850   0.701461E-01
     0.000     0.843   0.722591E-01
     0.000     0.835   0.742210E-01
     0.000     0.827   0.760322E-01
     0.000     0.819   0.776929E-01
     0.000     0.811   0.792029E-01
     0.000     0.803   0.805621E-01
     0.000     0.795   0.817699E-01
     0.000     0.787   0.828262E-01
     0.000     0.780   0.837305E-01
     0.000     0.772   0.844827E-01
     0.000     0.764   0.850828E-01
     0.000     0.756   0.855311E-01
     0.000     0.748   0.858280E-01
     0.000     0.740   0.859746E-01
     0.000     0.732   0.859721E-01
     0.000     0.724   0.858222E-01
     0.000     0.717   0.855270E-01
     0.000     0.709   0.850891E-01
     0.000     0.701   0.845114E-01
     0.000     0.693   0.837971E-01
     0.000     0.685   0.829498E-01
     0.000     0.677   0.819735E-01
     0.000     0.669   0.808725E-01
     0.000     0.661   0.796511E-01
     0.000     0.654   0.783141E-01
     0.000     0.646   0.768664E-01
     0.000     0.638   0.753132E-01
     0.000     0.630   0.736597E-01
     0.000     0.622   0.719117E-01
     0.000     0.614   0.700748E-01
     0.000     0.606   0.681553E-01
     0.000     0.598   0.661598E-01
     0.000     0.591   0.640950E-01
     0.000     0.583   0.619686E-01
     0.000     0.575   0.597886E-01
     0.000     0.567   0.575639E-01
     0.000     0.559   0.553040E-01
     0.000     0.551   0.530196E-01
     0.000     0.543   0.507224E-01
     0.000     0.535   0.484250E-01
     0.000     0.528   0.461415E-01
     0.000     0.520   0.438869E-01
     0.000     0.512   0.416777E-01
     0.000     0.504   0.395313E-01
     0.000     0.496   0.374657E-01
     0.000     0.488   0.354996E-01
     0.000     0.480   0.336518E-01
     0.000     0.472   0.319402E-01
     0.000     0.465   0.303818E-01
     0.000     0.457   0.289915E-01
     0.000     0.449   0.277814E-01
     0.000     0.441   0.267607E-01
     0.000     0.433   0.259347E-01
     0.000     0.425   0.253049E-01
     0.000     0.417   0.248687E-01
     0.000     0.409   0.246199E-01
     0.000     0.402   0.245488E-01
     0.000     0.394   0.246429E-01
     0.000     0.386   0.248876E-01
     0.000     0.378   0.252663E-01
     0.000     0.370   0.257618E-01
     0.000     0.362   0.263561E-01
     0.000     0.354   0.270314E-01
     0.000     0.346   0.277702E-01
     0.000     0.339   0.285557E-01
     0.000     0.331   0.293720E-01
     0.000     0.323   0.302043E-01
     0.000     0.315   0.310388E-01
     0.000     0.307   0.318630E-01
     0.000     0.299   0.326656E-01
     0.000     0.291   0.334363E-01
     0.000     0.283   0.341660E-01
     0.000     0.276   0.348467E-01
     0.000     0.268   0.354711E-01
     0.000     0.260   0.360331E-01
     0.000     0.252   0.365273E-01
     0.000     0.244   0.369488E-01
     0.000     0.236   0.372936E-01
     0.000     0.228   0.375583E-01
     0.000     0.220   0.377396E-01
     0.000     0.213   0.378351E-01
     0.000     0.205   0.378423E-01
     0.000     0.197   0.377592E-01
     0.000     0.189   0.375841E-01
     0.000     0.181   0.373152E-01
     0.000     0.173   0.369510E-01
     0.000     0.165   0.364899E-01
     0.000     0.157   0.359306E-01
     0.000     0.150   0.352715E-01
     0.000     0.142   0.345111E-01
     0.000     0.134   0.336478E-01
     0.000     0.126   0.326799E-01
     0.000     0.118   0.316055E-01
     0.000     0.110   0.304226E-01
     0.000     0.102   0.291288E-01
     0.000     0.094   0.277215E-01
     0.000     0.087   0.261975E-01
     0.000     0.079   0.245527E-01
     0.000     0.071   0.227820E-01
     0.000     0.063   0.208779E-01
     0.000     0.055   0.188309E-01
     0.000     0.047   0.166289E-01
     0.000     0.039   0.142591E-01
     0.000     0.031   0.117117E-01
     0.000     0.024   0.898602E-02
     0.000     0.016   0.609775E-02
     0.000     0.008   0.308349E-02
     0.000     0.000    0.00000    
     0.008     1.000   0.247344E-01
     0.008     0.992   0.300898E-01
     0.008     0.984   0.347054E-01
     0.008     0.976   0.393602E-01
     0.008     0.969   0.446538E-01
     0.008     0.961   0.507181E-01
     0.008     0.953   0.574141E-01
     0.008     0.945   0.645093E-01
     0.008     0.937   0.717776E-01
     0.008     0.929   0.790412E-01
     0.008     0.921   0.861772E-01
     0.008     0.913   0.931089E-01
     0.008     0.906   0.997926E-01
     0.008     0.898   0.106205    
     0.008     0.890   0.112334    
     0.008     0.882   0.118176    
     0.008     0.874   0.123729    
     0.008     0.866   0.128991    
     0.008     0.858   0.133962    
     0.008     0.850   0.138642    
     0.008     0.843   0.143028    
     0.008     0.835   0.147120    
     0.008     0.827   0.150914    
     0.008     0.819   0.154407    
     0.008     0.811   0.157597    
     0.008     0.803   0.160480    
     0.008     0.795   0.163051    
     0.008     0.787   0.165307    
     0.008     0.780   0.167244    
     0.008     0.772   0.168861    
     0.008     0.764   0.170155    
     0.008     0.756   0.171124    
     0.008     0.748   0.171770    
     0.008     0.740   0.172092    
     0.008     0.732   0.172093    
     0.008     0.724   0.171777    
     0.008     0.717   0.171149    
     0.008     0.709   0.170215    
     0.008     0.701   0.168982    
     0.008     0.693   0.167460    
     0.008     0.685   0.165657    
     0.008     0.677   0.163585    
     0.008     0.669   0.161253    
     0.008     0.661   0.158675    
     0.008     0.654   0.155861    
     0.008     0.646   0.152826    
     0.008     0.638   0.149582    
     0.008     0.630   0.146142    
     0.008     0.622   0.142520    
     0.008     0.614   0.138730    
     0.008     0.606   0.134786    
     0.008     0.598   0.130704    
     0.008     0.591   0.126498    
     0.008     0.583   0.122184    
     0.008     0.575   0.117781    
     0.008     0.567   0.113305    
     0.008     0.559   0.108778    
     0.008     0.551   0.104218    
     0.008     0.543   0.996508E-01
     0.008     0.535   0.950994E-01
     0.008     0.528   0.905910E-01
     0.008     0.520   0.861545E-01
     0.008     0.512   0.818207E-01
     0.008     0.504   0.776223E-01
     0.008     0.496   0.735935E-01
     0.008     0.488   0.697692E-01
     0.008     0.480   0.661846E-01
     0.008     0.472   0.628734E-01
     0.008     0.465   0.598676E-01
     0.008     0.457   0.571951E-01
     0.008     0.449   0.548793E-01
     0.008     0.441   0.529373E-01
     0.008     0.433   0.513795E-01
     0.008     0.425   0.502087E-01
     0.008     0.417   0.494204E-01
     0.008     0.409   0.490025E-01
     0.008     0.402   0.489366E-01
     0.008     0.394   0.491985E-01
     0.008     0.386   0.497595E-01
     0.008     0.378   0.505872E-01
     0.008     0.370   0.516473E-01
     0.008     0.362   0.529041E-01
     0.008     0.354   0.543215E-01
     0.008     0.346   0.558641E-01
     0.008     0.339   0.574974E-01
     0.008     0.331   0.591886E-01
     0.008     0.323   0.609068E-01
     0.008     0.315   0.626234E-01
     0.008     0.307   0.643118E-01
     0.008     0.299   0.659480E-01
     0.008     0.291   0.675104E-01
     0.008     0.283   0.689795E-01
     0.008     0.276   0.703384E-01
     0.008     0.268   0.715721E-01
     0.008     0.260   0.726675E-01
     0.008     0.252   0.736135E-01
     0.008     0.244   0.744009E-01
     0.008     0.236   0.750215E-01
     0.008     0.228   0.754691E-01
     0.008     0.220   0.757381E-01
     0.008     0.213   0.758245E-01
     0.008     0.205   0.757247E-01
     0.008     0.197   0.754362E-01
     0.008     0.189   0.749570E-01
     0.008     0.181   0.742854E-01
     0.008     0.173   0.734203E-01
     0.008     0.165   0.723607E-01
     0.008     0.157   0.711058E-01
     0.008     0.150   0.696549E-01
     0.008     0.142   0.680072E-01
     0.008     0.134   0.661618E-01
     0.008     0.126   0.641175E-01
     0.008     0.118   0.618730E-01
     0.008     0.110   0.594264E-01
     0.008     0.102   0.567754E-01
     0.008     0.094   0.539169E-01
     0.008     0.087   0.508466E-01
     0.008     0.079   0.475583E-01
     0.008     0.071   0.440434E-01
     0.008     0.063   0.402890E-01
     0.008     0.055   0.362774E-01
     0.008     0.047   0.319861E-01
     0.008     0.039   0.273903E-01
     0.008     0.031   0.224707E-01
     0.008     0.024   0.172249E-01
     0.008     0.016   0.116804E-01
     0.008     0.008   0.590399E-02
     0.008     0.000    0.00000    
     0.016     1.000   0.494537E-01
     0.016     0.992   0.501316E-01
     0.016     0.984   0.532624E-01
     0.016     0.976   0.584360E-01
     0.016     0.969   0.654432E-01
     0.016     0.961   0.739650E-01
     0.016     0.953   0.835835E-01
     0.016     0.945   0.938711E-01
     0.016     0.937   0.104461    
     0.016     0.929   0.115076    
     0.016     0.921   0.125528    
     0.016     0.913   0.135697    
     0.016     0.906   0.145516    
     0.016     0.898   0.154946    
     0.016     0.890   0.163968    
     0.016     0.882   0.172573    
     0.016     0.874   0.180756    
     0.016     0.866   0.188515    
     0.016     0.858   0.195848    
     0.016     0.850   0.202755    
     0.016     0.843   0.209232    
     0.016     0.835   0.215278    
     0.016     0.827   0.220889    
     0.016     0.819   0.226060    
     0.016     0.811   0.230785    
     0.016     0.803   0.235058    
     0.016     0.795   0.238874    
     0.016     0.787   0.242226    
     0.016     0.780   0.245108    
     0.016     0.772   0.247514    
     0.016     0.764   0.249441    
     0.016     0.756   0.250887    
     0.016     0.748   0.251849    
     0.016     0.740   0.252330    
     0.016     0.732   0.252333    
     0.016     0.724   0.251863    
     0.016     0.717   0.250929    
     0.016     0.709   0.249539    
     0.016     0.701   0.247707    
     0.016     0.693   0.245446    
     0.016     0.685   0.242771    
     0.016     0.677   0.239700    
     0.016     0.669   0.236249    
     0.016     0.661   0.232437    
     0.016     0.654   0.228285    
     0.016     0.646   0.223810    
     0.016     0.638   0.219033    
     0.016     0.630   0.213974    
     0.016     0.622   0.208654    
     0.016     0.614   0.203093    
     0.016     0.606   0.197312    
     0.016     0.598   0.191334    
     0.016     0.591   0.185180    
     0.016     0.583   0.178874    
     0.016     0.575   0.172442    
     0.016     0.567   0.165911    
     0.016     0.559   0.159308    
     0.016     0.551   0.152665    
     0.016     0.543   0.146016    
     0.016     0.535   0.139396    
     0.016     0.528   0.132845    
     0.016     0.520   0.126405    
     0.016     0.512   0.120120    
     0.016     0.504   0.114038    
     0.016     0.496   0.108209    
     0.016     0.488   0.102682    
     0.016     0.480   0.975083E-01
     0.016     0.472   0.927370E-01
     0.016     0.465   0.884134E-01
     0.016     0.457   0.845781E-01
     0.016     0.449   0.812648E-01
     0.016     0.441   0.784985E-01
     0.016     0.433   0.762944E-01
     0.016     0.425   0.746568E-01
     0.016     0.417   0.735794E-01
     0.016     0.409   0.730451E-01
     0.016     0.402   0.730272E-01
     0.016     0.394   0.734906E-01
     0.016     0.386   0.743931E-01
     0.016     0.378   0.756874E-01
     0.016     0.370   0.773223E-01
     0.016     0.362   0.792447E-01
     0.016     0.354   0.814006E-01
     0.016     0.346   0.837366E-01
     0.016     0.339   0.862007E-01
     0.016     0.331   0.887432E-01
     0.016     0.323   0.913171E-01
     0.016     0.315   0.938788E-01
     0.016     0.307   0.963880E-01
     0.016     0.299   0.988084E-01
     0.016     0.291   0.101107    
     0.016     0.283   0.103255    
     0.016     0.276   0.105228    
     0.016     0.268   0.107002    
     0.016     0.260   0.108559    
     0.016     0.252   0.109884    
     0.016     0.244   0.110964    
     0.016     0.236   0.111787    
     0.016     0.228   0.112346    
     0.016     0.220   0.112634    
     0.016     0.213   0.112645    
     0.016     0.205   0.112377    
     0.016     0.197   0.111826    
     0.016     0.189   0.110990    
     0.016     0.181   0.109870    
     0.016     0.173   0.108464    
     0.016     0.165   0.106772    
     0.016     0.157   0.104794    
     0.016     0.150   0.102529    
     0.016     0.142   0.999789E-01
     0.016     0.134   0.971424E-01
     0.016     0.126   0.940194E-01
     0.016     0.118   0.906092E-01
     0.016     0.110   0.869108E-01
     0.016     0.102   0.829223E-01
     0.016     0.094   0.786409E-01
     0.016     0.087   0.740622E-01
     0.016     0.079   0.691792E-01
     0.016     0.071   0.639812E-01
     0.016     0.063   0.584513E-01
     0.016     0.055   0.525658E-01
     0.016     0.047   0.462933E-01
     0.016     0.039   0.395992E-01
     0.016     0.031   0.324560E-01
     0.016     0.024   0.248594E-01
     0.016     0.016   0.168475E-01
     0.016     0.008   0.851260E-02
     0.016     0.000    0.00000    
     0.024     1.000   0.741428E-01
     0.024     0.992   0.707077E-01
     0.024     0.984   0.719817E-01
     0.024     0.976   0.771081E-01
     0.024     0.969   0.853290E-01
     0.024     0.961   0.958939E-01
     0.024     0.953   0.108073    
     0.024     0.945   0.121216    
     0.024     0.937   0.134798    
     0.024     0.929   0.148433    
     0.024     0.921   0.161860    
     0.024     0.913   0.174915    
     0.024     0.906   0.187499    
     0.024     0.898   0.199560    
     0.024     0.890   0.211070    
     0.024     0.882   0.222016    
     0.024     0.874   0.232394    
     0.024     0.866   0.242204    
     0.024     0.858   0.251449    
     0.024     0.850   0.260131    
     0.024     0.843   0.268254    
     0.024     0.835   0.275818    
     0.024     0.827   0.282824    
     0.024     0.819   0.289271    
     0.024     0.811   0.295155    
     0.024     0.803   0.300473    
     0.024     0.795   0.305219    
     0.024     0.787   0.309386    
     0.024     0.780   0.312968    
     0.024     0.772   0.315958    
     0.024     0.764   0.318352    
     0.024     0.756   0.320146    
     0.024     0.748   0.321339    
     0.024     0.740   0.321931    
     0.024     0.732   0.321927    
     0.024     0.724   0.321335    
     0.024     0.717   0.320163    
     0.024     0.709   0.318427    
     0.024     0.701   0.316140    
     0.024     0.693   0.313322    
     0.024     0.685   0.309993    
     0.024     0.677   0.306173    
     0.024     0.669   0.301885    
     0.024     0.661   0.297152    
     0.024     0.654   0.291997    
     0.024     0.646   0.286444    
     0.024     0.638   0.280514    
     0.024     0.630   0.274231    
     0.024     0.622   0.267619    
     0.024     0.614   0.260700    
     0.024     0.606   0.253498    
     0.024     0.598   0.246038    
     0.024     0.591   0.238347    
     0.024     0.583   0.230452    
     0.024     0.575   0.222384    
     0.024     0.567   0.214175    
     0.024     0.559   0.205861    
     0.024     0.551   0.197482    
     0.024     0.543   0.189080    
     0.024     0.535   0.180704    
     0.024     0.528   0.172404    
     0.024     0.520   0.164235    
     0.024     0.512   0.156257    
     0.024     0.504   0.148531    
     0.024     0.496   0.141123    
     0.024     0.488   0.134098    
     0.024     0.480   0.127523    
     0.024     0.472   0.121460    
     0.024     0.465   0.115971    
     0.024     0.457   0.111106    
     0.024     0.449   0.106911    
     0.024     0.441   0.103419    
     0.024     0.433   0.100648    
     0.024     0.425   0.986063E-01
     0.024     0.417   0.972852E-01
     0.024     0.409   0.966632E-01
     0.024     0.402   0.967060E-01
     0.024     0.394   0.973682E-01
     0.024     0.386   0.985949E-01
     0.024     0.378   0.100324    
     0.024     0.370   0.102489    
     0.024     0.362   0.105020    
     0.024     0.354   0.107845    
     0.024     0.346   0.110893    
     0.024     0.339   0.114097    
     0.024     0.331   0.117390    
     0.024     0.323   0.120711    
     0.024     0.315   0.124001    
     0.024     0.307   0.127210    
     0.024     0.299   0.130289    
     0.024     0.291   0.133197    
     0.024     0.283   0.135897    
     0.024     0.276   0.138357    
     0.024     0.268   0.140552    
     0.024     0.260   0.142458    
     0.024     0.252   0.144057    
     0.024     0.244   0.145335    
     0.024     0.236   0.146280    
     0.024     0.228   0.146882    
     0.024     0.220   0.147136    
     0.024     0.213   0.147036    
     0.024     0.205   0.146579    
     0.024     0.197   0.145762    
     0.024     0.189   0.144582    
     0.024     0.181   0.143040    
     0.024     0.173   0.141134    
     0.024     0.165   0.138862    
     0.024     0.157   0.136225    
     0.024     0.150   0.133220    
     0.024     0.142   0.129848    
     0.024     0.134   0.126106    
     0.024     0.126   0.121995    
     0.024     0.118   0.117512    
     0.024     0.110   0.112655    
     0.024     0.102   0.107424    
     0.024     0.094   0.101814    
     0.024     0.087   0.958222E-01
     0.024     0.079   0.894403E-01
     0.024     0.071   0.826568E-01
     0.024     0.063   0.754527E-01
     0.024     0.055   0.677996E-01
     0.024     0.047   0.596602E-01
     0.024     0.039   0.509925E-01
     0.024     0.031   0.417631E-01
     0.024     0.024   0.319677E-01
     0.024     0.016   0.216540E-01
     0.024     0.008   0.109378E-01
     0.024     0.000    0.00000    
     0.031     1.000   0.987864E-01
     0.031     0.992   0.913944E-01
     0.031     0.984   0.906050E-01
     0.031     0.976   0.952923E-01
     0.031     0.969   0.104296    
     0.031     0.961   0.116485    
     0.031     0.953   0.130821    
     0.031     0.945   0.146422    
     0.031     0.937   0.162593    
     0.031     0.929   0.178831    
     0.031     0.921   0.194796    
     0.031     0.913   0.210272    
     0.031     0.906   0.225131    
     0.031     0.898   0.239304    
     0.031     0.890   0.252756    
     0.031     0.882   0.265475    
     0.031     0.874   0.277461    
     0.031     0.866   0.288725    
     0.031     0.858   0.299278    
     0.031     0.850   0.309135    
     0.031     0.843   0.318312    
     0.031     0.835   0.326822    
     0.031     0.827   0.334677    
     0.031     0.819   0.341884    
     0.031     0.811   0.348450    
     0.031     0.803   0.354374    
     0.031     0.795   0.359657    
     0.031     0.787   0.364293    
     0.031     0.780   0.368277    
     0.031     0.772   0.371602    
     0.031     0.764   0.374262    
     0.031     0.756   0.376252    
     0.031     0.748   0.377570    
     0.031     0.740   0.378217    
     0.031     0.732   0.378196    
     0.031     0.724   0.377516    
     0.031     0.717   0.376190    
     0.031     0.709   0.374233    
     0.031     0.701   0.371665    
     0.031     0.693   0.368507    
     0.031     0.685   0.364784    
     0.031     0.677   0.360520    
     0.031     0.669   0.355741    
     0.031     0.661   0.350471    
     0.031     0.654   0.344734    
     0.031     0.646   0.338554    
     0.031     0.638   0.331952    
     0.031     0.630   0.324950    
     0.031     0.622   0.317568    
     0.031     0.614   0.309827    
     0.031     0.606   0.301747    
     0.031     0.598   0.293351    
     0.031     0.591   0.284663    
     0.031     0.583   0.275711    
     0.031     0.575   0.266525    
     0.031     0.567   0.257139    
     0.031     0.559   0.247596    
     0.031     0.551   0.237938    
     0.031     0.543   0.228218    
     0.031     0.535   0.218493    
     0.031     0.528   0.208824    
     0.031     0.520   0.199280    
     0.031     0.512   0.189934    
     0.031     0.504   0.180864    
     0.031     0.496   0.172150    
     0.031     0.488   0.163875    
     0.031     0.480   0.156119    
     0.031     0.472   0.148964    
     0.031     0.465   0.142481    
     0.031     0.457   0.136737    
     0.031     0.449   0.131785    
     0.031     0.441   0.127667    
     0.031     0.433   0.124408    
     0.031     0.425   0.122016    
     0.031     0.417   0.120482    
     0.031     0.409   0.119782    
     0.031     0.402   0.119873    
     0.031     0.394   0.120701    
     0.031     0.386   0.122198    
     0.031     0.378   0.124290    
     0.031     0.370   0.126894    
     0.031     0.362   0.129925    
     0.031     0.354   0.133295    
     0.031     0.346   0.136917    
     0.031     0.339   0.140709    
     0.031     0.331   0.144590    
     0.031     0.323   0.148485    
     0.031     0.315   0.152325    
     0.031     0.307   0.156049    
     0.031     0.299   0.159602    
     0.031     0.291   0.162936    
     0.031     0.283   0.166009    
     0.031     0.276   0.168788    
     0.031     0.268   0.171243    
     0.031     0.260   0.173352    
     0.031     0.252   0.175096    
     0.031     0.244   0.176462    
     0.031     0.236   0.177440    
     0.031     0.228   0.178021    
     0.031     0.220   0.178200    
     0.031     0.213   0.177972    
     0.031     0.205   0.177334    
     0.031     0.197   0.176284    
     0.031     0.189   0.174818    
     0.031     0.181   0.172932    
     0.031     0.173   0.170625    
     0.031     0.165   0.167891    
     0.031     0.157   0.164726    
     0.031     0.150   0.161125    
     0.031     0.142   0.157084    
     0.031     0.134   0.152596    
     0.031     0.126   0.147658    
     0.031     0.118   0.142264    
     0.031     0.110   0.136409    
     0.031     0.102   0.130091    
     0.031     0.094   0.123303    
     0.031     0.087   0.116041    
     0.031     0.079   0.108298    
     0.031     0.071   0.100060    
     0.031     0.063   0.913090E-01
     0.031     0.055   0.820134E-01
     0.031     0.047   0.721323E-01
     0.031     0.039   0.616197E-01
     0.031     0.031   0.504397E-01
     0.031     0.024   0.385899E-01
     0.031     0.016   0.261291E-01
     0.031     0.008   0.131947E-01
     0.031     0.000    0.00000    
     0.039     1.000   0.123370    
     0.039     0.992   0.112040    
     0.039     0.984   0.109010    
     0.039     0.976   0.112931    
     0.039     0.969   0.122318    
     0.039     0.961   0.135704    
     0.039     0.953   0.151761    
     0.039     0.945   0.169375    
     0.039     0.937   0.187678    
     0.039     0.929   0.206044    
     0.039     0.921   0.224046    
     0.039     0.913   0.241416    
     0.039     0.906   0.257994    
     0.039     0.898   0.273695    
     0.039     0.890   0.288480    
     0.039     0.882   0.302345    
     0.039     0.874   0.315300    
     0.039     0.866   0.327373    
     0.039     0.858   0.338595    
     0.039     0.850   0.349001    
     0.039     0.843   0.358629    
     0.039     0.835   0.367510    
     0.039     0.827   0.375675    
     0.039     0.819   0.383147    
     0.039     0.811   0.389942    
     0.039     0.803   0.396070    
     0.039     0.795   0.401536    
     0.039     0.787   0.406336    
     0.039     0.780   0.410465    
     0.039     0.772   0.413914    
     0.039     0.764   0.416674    
     0.039     0.756   0.418737    
     0.039     0.748   0.420096    
     0.039     0.740   0.420750    
     0.039     0.732   0.420703    
     0.039     0.724   0.419964    
     0.039     0.717   0.418546    
     0.039     0.709   0.416470    
     0.039     0.701   0.413760    
     0.039     0.693   0.410441    
     0.039     0.685   0.406544    
     0.039     0.677   0.402097    
     0.039     0.669   0.397129    
     0.039     0.661   0.391666    
     0.039     0.654   0.385732    
     0.039     0.646   0.379349    
     0.039     0.638   0.372535    
     0.039     0.630   0.365304    
     0.039     0.622   0.357672    
     0.039     0.614   0.349649    
     0.039     0.606   0.341248    
     0.039     0.598   0.332484    
     0.039     0.591   0.323372    
     0.039     0.583   0.313933    
     0.039     0.575   0.304192    
     0.039     0.567   0.294182    
     0.039     0.559   0.283942    
     0.039     0.551   0.273519    
     0.039     0.543   0.262969    
     0.039     0.535   0.252355    
     0.039     0.528   0.241750    
     0.039     0.520   0.231234    
     0.039     0.512   0.220894    
     0.039     0.504   0.210821    
     0.039     0.496   0.201113    
     0.039     0.488   0.191869    
     0.039     0.480   0.183185    
     0.039     0.472   0.175157    
     0.039     0.465   0.167874    
     0.039     0.457   0.161412    
     0.039     0.449   0.155838    
     0.039     0.441   0.151200    
     0.039     0.433   0.147529    
     0.039     0.425   0.144836    
     0.039     0.417   0.143111    
     0.039     0.409   0.142327    
     0.039     0.402   0.142436    
     0.039     0.394   0.143372    
     0.039     0.386   0.145060    
     0.039     0.378   0.147411    
     0.039     0.370   0.150330    
     0.039     0.362   0.153716    
     0.039     0.354   0.157467    
     0.039     0.346   0.161485    
     0.039     0.339   0.165671    
     0.039     0.331   0.169934    
     0.039     0.323   0.174190    
     0.039     0.315   0.178361    
     0.039     0.307   0.182379    
     0.039     0.299   0.186186    
     0.039     0.291   0.189729    
     0.039     0.283   0.192968    
     0.039     0.276   0.195869    
     0.039     0.268   0.198404    
     0.039     0.260   0.200554    
     0.039     0.252   0.202303    
     0.039     0.244   0.203642    
     0.039     0.236   0.204561    
     0.039     0.228   0.205058    
     0.039     0.220   0.205128    
     0.039     0.213   0.204768    
     0.039     0.205   0.203976    
     0.039     0.197   0.202746    
     0.039     0.189   0.201074    
     0.039     0.181   0.198954    
     0.039     0.173   0.196377    
     0.039     0.165   0.193333    
     0.039     0.157   0.189812    
     0.039     0.150   0.185801    
     0.039     0.142   0.181287    
     0.039     0.134   0.176258    
     0.039     0.126   0.170700    
     0.039     0.118   0.164603    
     0.039     0.110   0.157955    
     0.039     0.102   0.150746    
     0.039     0.094   0.142970    
     0.039     0.087   0.134619    
     0.039     0.079   0.125683    
     0.039     0.071   0.116151    
     0.039     0.063   0.106002    
     0.039     0.055   0.952054E-01
     0.039     0.047   0.837196E-01
     0.039     0.039   0.714978E-01
     0.039     0.031   0.585049E-01
     0.039     0.024   0.447441E-01
     0.039     0.016   0.302864E-01
     0.039     0.008   0.152907E-01
     0.039     0.000    0.00000    
     0.047     1.000   0.147877    
     0.047     0.992   0.132588    
     0.047     0.984   0.127146    
     0.047     0.976   0.129998    
     0.047     0.969   0.139379    
     0.047     0.961   0.153528    
     0.047     0.953   0.170848    
     0.047     0.945   0.190001    
     0.047     0.937   0.209948    
     0.047     0.929   0.229936    
     0.047     0.921   0.249452    
     0.047     0.913   0.268171    
     0.047     0.906   0.285900    
     0.047     0.898   0.302544    
     0.047     0.890   0.318065    
     0.047     0.882   0.332469    
     0.047     0.874   0.345790    
     0.047     0.866   0.358078    
     0.047     0.858   0.369394    
     0.047     0.850   0.379802    
     0.047     0.843   0.389367    
     0.047     0.835   0.398147    
     0.047     0.827   0.406194    
     0.047     0.819   0.413550    
     0.047     0.811   0.420243    
     0.047     0.803   0.426292    
     0.047     0.795   0.431704    
     0.047     0.787   0.436476    
     0.047     0.780   0.440597    
     0.047     0.772   0.444051    
     0.047     0.764   0.446822    
     0.047     0.756   0.448894    
     0.047     0.748   0.450253    
     0.047     0.740   0.450893    
     0.047     0.732   0.450815    
     0.047     0.724   0.450028    
     0.047     0.717   0.448549    
     0.047     0.709   0.446402    
     0.047     0.701   0.443620    
     0.047     0.693   0.440237    
     0.047     0.685   0.436289    
     0.047     0.677   0.431815    
     0.047     0.669   0.426849    
     0.047     0.661   0.421421    
     0.047     0.654   0.415558    
     0.047     0.646   0.409279    
     0.047     0.638   0.402598    
     0.047     0.630   0.395524    
     0.047     0.622   0.388060    
     0.047     0.614   0.380206    
     0.047     0.606   0.371963    
     0.047     0.598   0.363330    
     0.047     0.591   0.354311    
     0.047     0.583   0.344912    
     0.047     0.575   0.335149    
     0.047     0.567   0.325044    
     0.047     0.559   0.314631    
     0.047     0.551   0.303953    
     0.047     0.543   0.293067    
     0.047     0.535   0.282038    
     0.047     0.528   0.270946    
     0.047     0.520   0.259880    
     0.047     0.512   0.248939    